! Touchstone file exported from HFSS 2020.2.0
!        File:           C:/Users/JH218595/Documents/ICRH/WEST/HFSS_antenna_elements/Bridge_ImpTrasnf_Stub.aedt
!        Generated:      4:42:14  ao%xFBt 02, 2020
!        Design:         Transf_Window_PumpHolePMC
!        Project:        Bridge_ImpTrasnf_Stub
!        Setup:          Setup1
!        Solution:       Sweep_operationnal
!
!Data is not renormalized
# GHZ S MA
! Terminal data exported
! Port[1] = 1
! Port[2] = 2
0.03                           0.538506162983567 86.0879523835644 0.84123710331407 -109.526001051936 0.84123710331407 -109.526001051936 0.537849079843955 -125.034135023354 
! Gamma         8.93703789339272E-05 0.628842906893459 0.000586272508822984 0.629340426770969 
! Port Impedance         29.8958370150267 -0.00408505198309862 5.30006944587556 -0.00486328387641822 
0.03001                        0.538391801765972 86.0492576108451 0.841309904865708 -109.565872746535 0.841309904865708 -109.565872746535 0.537734873190737 -125.075167723052 
! Gamma         8.93852776047993E-05 0.629052506294158 0.000586370320135052 0.629550109083979 
! Port Impedance         29.89583633359   -0.00408437073834819 5.30006863475366 -0.00486247424290374 
0.03002                        0.538277399267518 86.0105536417068 0.84138271091228 -109.605747443924 0.84138271091228 -109.605747443924 0.537620625579821 -125.116197236289 
! Gamma         8.9400173793862E-05 0.629262105692378 0.000586468115151356 0.629759791380711 
! Port Impedance         29.8958356524936 -0.00408368983366292 5.30006782403721 -0.00486166501380894 
0.03003                        0.538162955502191 85.9718404691474 0.841455521427008 -109.645625144339 0.841455521427008 -109.645625144339 0.537506337025113 -125.157223556525 
! Gamma         8.94150675023593E-05 0.62947170508812 0.000586565893880072 0.629969473661173 
! Port Impedance         29.8958349717372 -0.00408300926875974 5.30006701372587 -0.00486085618879715 
0.03004                        0.538048470484019 85.9331180861578 0.841528336383092 -109.685505848014 0.841528336383092 -109.685505848014 0.537392007540559 -125.198246677207 
! Gamma         8.94299587315338E-05 0.629681304481385 0.00058666365632937 0.630179155925373 
! Port Impedance         29.8958342913204 -0.0040823290433559 5.30006620381929 -0.00486004776753209 
0.03005                        0.537933944227075 85.8943864857228 0.841601155753722 -109.725389555183 0.841601155753721 -109.725389555183 0.537277637140152 -125.239266591776 
! Gamma         8.94448474826275E-05 0.629890903872173 0.000586761402507412 0.630388838173319 
! Port Impedance         29.895833611243  -0.00408164915716897 5.30006539431715 -0.00485923974967786 
0.03006                        0.537819376745474 85.85564566082   0.841673979512065 -109.765276266078 0.841673979512065 -109.765276266078 0.537163225837926 -125.280283293664 
! Gamma         8.94597337568809E-05 0.630100503260488 0.000586859132422353 0.630598520405019 
! Port Impedance         29.8958329315048 -0.00408096960991688 5.30006458521911 -0.00485843213489897 
0.03007                        0.537704768053375 85.8168956044209 0.841746807631275 -109.805165980931 0.841746807631275 -109.805165980931 0.537048773647958 -125.321296776293 
! Gamma         8.94746175555335E-05 0.630310102646329 0.000586956846082342 0.630808202620482 
! Port Impedance         29.8958322521053 -0.00408029040131784 5.30006377652482 -0.00485762492286029 
0.03008                        0.537590118164981 85.7781363094901 0.841819640084487 -109.845058699972 0.841819640084487 -109.845058699972 0.536934280584372 -125.362307033078 
! Gamma         8.94894988798239E-05 0.630519702029698 0.00058705454349552 0.631017884819715 
! Port Impedance         29.8958315730445 -0.00407961153109044 5.30006296823396 -0.00485681811322711 
0.03009                        0.537475427094539 85.7393677689856 0.841892476844821 -109.884954423429 0.841892476844821 -109.884954423429 0.536819746661333 -125.403314057423 
! Gamma         8.95043777309896E-05 0.630729301410596 0.00058715222467002 0.631227567002726 
! Port Impedance         29.8958308943219 -0.00407893299895355 5.30006216034619 -0.00485601170566508 
0.0301                         0.537360694856337 85.7005899758587 0.841965317885377 -109.924853151531 0.841965317885377 -109.924853151531 0.536705171893049 -125.444317842724 
! Gamma         8.9519254110267E-05 0.630938900789024 0.000587249889613972 0.631437249169523 
! Port Impedance         29.8958302159373 -0.0040782548046264 5.30006135286116 -0.00485520569984027 
0.03011                        0.537245921464711 85.6618029230541 0.842038163179241 -109.964754884505 0.842038163179241 -109.964754884505 0.536590556293775 -125.485318382368 
! Gamma         8.95341280188913E-05 0.631148500164984 0.000587347538335494 0.631646931320114 
! Port Impedance         29.8958295378904 -0.00407757694782852 5.30006054577855 -0.0048544000954191 
0.03012                        0.537131106934038 85.6230066035099 0.842111012699482 -110.004659622577 0.842111012699482 -110.004659622577 0.536475899877807 -125.526315669735 
! Gamma         8.95489994580968E-05 0.631358099538477 0.0005874451708427 0.631856613454508 
! Port Impedance         29.8958288601809 -0.00407689942827978 5.30005973909802 -0.00485359489206841 
0.03013                        0.53701625127874 85.5842010101575 0.84218386641915 -110.04456736597 0.84218386641915 -110.04456736597 0.536361202659486 -125.567309698193 
! Gamma         8.95638684291167E-05 0.631567698909504 0.000587542787143697 0.632066295572711 
! Port Impedance         29.8958281828085 -0.00407622224570036 5.30005893281924 -0.00485279008945539 
0.03014                        0.536901354513283 85.5453861359215 0.84225672431128 -110.084478114909 0.84225672431128 -110.084478114909 0.536246464653197 -125.608300461104 
! Gamma         8.95787349331832E-05 0.631777298278065 0.000587640387246582 0.632275977674733 
! Port Impedance         29.8958275057731 -0.0040755453998108 5.30005812694187 -0.00485198568724766 
0.03015                        0.536786416652177 85.5065619737198 0.842329586348888 -110.124391869616 0.842329586348888 -110.124391869616 0.53613168587337 -125.649287951819 
! Gamma         8.95935989715273E-05 0.631986897644164 0.000587737971159449 0.632485659760582 
! Port Impedance         29.8958268290742 -0.00407486889033192 5.30005732146558 -0.00485118168511318 
0.03016                        0.536671437709974 85.4677285164638 0.842402452504975 -110.164308630312 0.842402452504975 -110.164308630312 0.536016866334476 -125.69027216368 
! Gamma         8.9608460545379E-05 0.6321964970078  0.000587835538890383 0.632695341830264 
! Port Impedance         29.8958261527116 -0.00407419271698488 5.30005651639004 -0.00485037808272032 
0.03017                        0.536556417701274 85.428885757058  0.842475322752527 -110.204228397217 0.842475322752527 -110.204228397217 0.535902006051034 -125.731253090022 
! Gamma         8.96233196559674E-05 0.632406096368975 0.000587933090447463 0.632905023883788 
! Port Impedance         29.8958254766851 -0.00407351687949117 5.30005571171491 -0.00484957487973783 
0.03018                        0.536441356640719 85.3900336884004 0.842548197064506 -110.244151170551 0.842548197064506 -110.244151170551 0.535787105037604 -125.77223072417 
! Gamma         8.96381763045204E-05 0.632615695727689 0.000588030625838759 0.633114705921163 
! Port Impedance         29.8958248009943 -0.00407284137757259 5.30005490743986 -0.00484877207583483 
0.03019                        0.536326254542997 85.351172303382  0.842621075413867 -110.284076950531 0.842621075413867 -110.284076950531 0.535672163308794 -125.81320505944 
! Gamma         8.96530304922648E-05 0.632825295083946 0.000588128145072336 0.633324387942395 
! Port Impedance         29.895824125639  -0.00407216621095128 5.30005410356456 -0.00484796967068085 
0.0302                         0.536211111422837 85.3123015948872 0.842693957773538 -110.324005737374 0.842693957773538 -110.324005737374 0.535557180879253 -125.854176089138 
! Gamma         8.96678822204264E-05 0.633034894437744 0.000588225648156253 0.633534069947494 
! Port Impedance         29.8958234506189 -0.00407149137934967 5.30005330008867 -0.00484716766394578 
0.03021                        0.536095927295015 85.2734215557937 0.842766844116439 -110.363937531296 0.842766844116439 -110.363937531296 0.535442157763677 -125.895143806564 
! Gamma         8.968273149023E-05 0.633244493789086 0.000588323135098558 0.633743751936466 
! Port Impedance         29.8958227759337 -0.00407081688249055 5.30005249701188 -0.00484636605529989 
0.03022                        0.535980702174351 85.2345321789724 0.842839734415466 -110.403872332512 0.842839734415466 -110.403872332512 0.535327093976803 -125.936108205005 
! Gamma         8.96975783028994E-05 0.633454093137974 0.000588420605907297 0.633953433909321 
! Port Impedance         29.8958221015831 -0.004070142720097 5.30005169433383 -0.00484556484441384 
0.03023                        0.535865436075711 85.1956334572875 0.842912628643503 -110.443810141234 0.842912628643503 -110.443810141234 0.535211989533417 -125.977069277743 
! Gamma         8.97124226596571E-05 0.633663692484407 0.000588518060590506 0.634163115866065 
! Port Impedance         29.8958214275669 -0.00406946889189242 5.30005089205421 -0.00484476403095866 
0.03024                        0.535750129014003 85.1567253835965 0.842985526773416 -110.483750957676 0.842985526773416 -110.483750957676 0.535096844448346 -126.018027018048 
! Gamma         8.97272645617249E-05 0.633873291828388 0.000588615499156214 0.634372797806707 
! Port Impedance         29.8958207538847 -0.00406879539760056 5.30005009017269 -0.00484396361460578 
0.03025                        0.535634781004181 85.1178079507497 0.843058428778051 -110.523694782047 0.843058428778052 -110.523694782047 0.534981658736466 -126.058981419183 
! Gamma         8.97421040103233E-05 0.634082891169917 0.000588712921612446 0.634582479731254 
! Port Impedance         29.8958200805364 -0.00406812223694545 5.30004928868893 -0.00484316359502698 
0.03026                        0.535519392061246 85.0788811515913 0.843131334630243 -110.563641614559 0.843131334630243 -110.563641614559 0.534866432412691 -126.099932474401 
! Gamma         8.97569410066718E-05 0.634292490508996 0.000588810327967217 0.634792161639715 
! Port Impedance         29.8958194075216 -0.00406744940965146 5.3000484876026  -0.00484236397189445 
0.03027                        0.535403962200239 85.0399449789581 0.843204244302805 -110.603591455421 0.843204244302805 -110.603591455421 0.534751165491987 -126.140880176946 
! Gamma         8.9771775551989E-05 0.634502089845626 0.000588907718228537 0.635001843532098 
! Port Impedance         29.8958187348401 -0.00406677691544328 5.30004768691338 -0.00484156474488073 
0.03028                        0.535288491436249 85.0009994256804 0.843277157768535 -110.643544304839 0.843277157768535 -110.643544304839 0.534635857989362 -126.181824520053 
! Gamma         8.97866076474922E-05 0.634711689179808 0.000589005092404408 0.63521152540841 
! Port Impedance         29.8958180624916 -0.0040661047540459 5.30004688662094 -0.00484076591365876 
0.03029                        0.535172979784412 84.9620444845818 0.843350075000214 -110.683500163021 0.843350075000214 -110.683500163021 0.534520509919867 -126.222765496948 
! Gamma         8.98014372943981E-05 0.634921288511543 0.000589102450502825 0.635421207268659 
! Port Impedance         29.8958173904757 -0.00406543292518465 5.30004608672494 -0.00483996747790184 
0.0303                         0.535057427259904 84.9230801484788 0.843422995970607 -110.723459030173 0.843422995970607 -110.723459030173 0.534405121298601 -126.263703100849 
! Gamma         8.98162644939218E-05 0.635130887840833 0.000589199792531779 0.635630889112853 
! Port Impedance         29.8958167187923 -0.00406476142858516 5.30004528722507 -0.00483916943728365 
0.03031                        0.53494183387795 84.8841064101813 0.843495920652461 -110.763420906498 0.843495920652461 -110.763420906498 0.534289692140706 -126.304637324963 
! Gamma         8.98310892472779E-05 0.635340487167678 0.00058929711849925 0.635840570941001 
! Port Impedance         29.895816047441  -0.00406409026397338 5.30004448812099 -0.00483837179147825 
0.03032                        0.534826199653818 84.8451232624921 0.843568849018508 -110.803385792201 0.843568849018508 -110.803385792201 0.534174222461372 -126.345568162489 
! Gamma         8.98459115556795E-05 0.635550086492081 0.000589394428413214 0.636050252753108 
! Port Impedance         29.8958153764217 -0.00406341943107558 5.30004368941238 -0.00483757454016008 
0.03033                        0.534710524602824 84.8061306982076 0.84364178104146 -110.843353687483 0.843641781041459 -110.843353687483 0.534058712275831 -126.386495606618 
! Gamma         8.98607314203391E-05 0.635759685814041 0.000589491722281639 0.636259934549185 
! Port Impedance         29.8958147057339 -0.00406274892961834 5.30004289109891 -0.00483677768300394 
0.03034                        0.534594808740326 84.7671287101169 0.843714716694014 -110.883324592544 0.843714716694014 -110.883324592544 0.533943161599364 -126.427419650529 
! Gamma         8.98755488424677E-05 0.635969285133561 0.000589589000112487 0.636469616329238 
! Port Impedance         29.8958140353774 -0.00406207875932855 5.30004209318025 -0.00483598121968502 
0.03035                        0.53447905208173 84.7281172910026 0.843787655948852 -110.923298507587 0.843787655948851 -110.923298507587 0.533827570447292 -126.468340287395 
! Gamma         8.98903638232758E-05 0.636178884450642 0.000589686261913712 0.636679298093276 
! Port Impedance         29.8958133653521 -0.00406140891993343 5.30004129565609 -0.00483518514987887 
0.03036                        0.534363254642486 84.6890964336402 0.843860598778635 -110.963275432808 0.843860598778635 -110.963275432808 0.533711938834988 -126.509257510378 
! Gamma         8.99051763639724E-05 0.636388483765284 0.000589783507693264 0.636888979841306 
! Port Impedance         29.8958126956575 -0.0040607394111605 5.30004049852608 -0.00483438947326142 
0.03037                        0.534247416438088 84.6500661307983 0.843933545156011 -111.003255368405 0.843933545156011 -111.003255368405 0.533596266777865 -126.550171312632 
! Gamma         8.99199864657657E-05 0.636598083077489 0.000589880737459082 0.637098661573337 
! Port Impedance         29.8958120262934 -0.0040600702327376 5.30003970178991 -0.00483359418950898 
0.03038                        0.534131537484081 84.6110263752389 0.84400649505361 -111.043238314576 0.84400649505361 -111.043238314576 0.533480554291384 -126.5910816873  
! Gamma         8.99347941298629E-05 0.636807682387258 0.000589977951219102 0.637308343289375 
! Port Impedance         29.8958113572596 -0.00405940138439287 5.30003890544726 -0.00483279929829821 
0.03039                        0.53401561779605 84.5719771597169 0.844079448444045 -111.083224271515 0.844079448444045 -111.083224271515 0.533364801391053 -126.631988627519 
! Gamma         8.99495993574701E-05 0.637017281694592 0.00059007514898125 0.637518024989429 
! Port Impedance         29.8958106885557 -0.00405873286585478 5.30003810949779 -0.00483200479930616 
0.0304                         0.533899657389628 84.5329184769803 0.844152405299911 -111.123213239417 0.844152405299911 -111.123213239417 0.533249008092423 -126.672892126414 
! Gamma         8.99644021497925E-05 0.637226880999493 0.000590172330753449 0.637727706673506 
! Port Impedance         29.8958100201816 -0.0040580646768521 5.30003731394118 -0.00483121069221024 
0.03041                        0.533783656280494 84.4938503197703 0.844225365593788 -111.163205218474 0.844225365593788 -111.163205218474 0.533133174411092 -126.713792177102 
! Gamma         8.99792025080339E-05 0.637436480301962 0.000590269496543612 0.637937388341615 
! Port Impedance         29.8958093521368 -0.00405739681711392 5.30003651877712 -0.00483041697668825 
0.03042                        0.533667614484372 84.454772680821  0.84429832929824 -111.20320020888 0.84429832929824 -111.20320020888 0.533017300362704 -126.754688772691 
! Gamma         8.99940004333976E-05 0.637646079601999 0.000590366646359647 0.638147069993764 
! Port Impedance         29.8958086844212 -0.00405672928636964 5.30003572400527 -0.00482962365241834 
0.03043                        0.533551532017034 84.4156855528599 0.84437129638581 -111.243198210823 0.84437129638581 -111.243198210823 0.53290138596295 -126.795581906279 
! Gamma         9.00087959270856E-05 0.637855678899607 0.000590463780209455 0.638356751629959 
! Port Impedance         29.8958080170346 -0.00405606208434896 5.30003492962532 -0.00482883071907903 
0.03044                        0.533435408894294 84.3765889286072 0.844444266829029 -111.283199224495 0.844444266829029 -111.283199224495 0.532785431227565 -126.836471570956 
! Gamma         9.00235889902989E-05 0.638065278194785 0.00059056089810093 0.638566433250209 
! Port Impedance         29.8958073499765 -0.0040553952107819 5.30003413563694 -0.00482803817634922 
0.03045                        0.533319245132016 84.3374828007764 0.844517240600409 -111.323203250084 0.844517240600409 -111.323203250084 0.532669436172331 -126.877357759802 
! Gamma         9.00383796242374E-05 0.638274877487536 0.000590658000041959 0.638776114854522 
! Port Impedance         29.8958066832467 -0.00405472866539879 5.30003334203981 -0.00482724602390816 
0.03046                        0.533203040746109 84.2983671620741 0.844590217672445 -111.363210287777 0.844590217672445 -111.363210287777 0.532553400813076 -126.918240465888 
! Gamma         9.00531678301002E-05 0.638484476777861 0.000590755086040424 0.638985796442905 
! Port Impedance         29.8958060168451 -0.00405406244793026 5.30003254883361 -0.0048264542614355 
0.03047                        0.533086795752527 84.2592420051996 0.844663198017616 -111.40322033776 0.844663198017616 -111.40322033776 0.532437325165674 -126.959119682276 
! Gamma         9.00679536090853E-05 0.638694076065761 0.000590852156104197 0.639195478015366 
! Port Impedance         29.8958053507712 -0.00405339655810726 5.30003175601801 -0.00482566288861122 
0.03048                        0.532970510167272 84.2201073228456 0.844736181608384 -111.443233400219 0.844736181608384 -111.443233400219 0.532321209246046 -126.999995402018 
! Gamma         9.00827369623895E-05 0.638903675351236 0.000590949210241147 0.639405159571914 
! Port Impedance         29.8958046850249 -0.00405273099566104 5.3000309635927  -0.00482487190511568 
0.03049                        0.532854184006389 84.1809631076978 0.844809168417195 -111.483249475337 0.844809168417195 -111.483249475337 0.532205053070159 -127.040867618158 
! Gamma         9.00975178912089E-05 0.639113274634289 0.000591046248459134 0.639614841112554 
! Port Impedance         29.8958040196059 -0.00405206576032316 5.30003017155736 -0.00482408131062962 
0.0305                         0.532737817285975 84.1418093524347 0.844882158416476 -111.523268563298 0.844882158416476 -111.523268563298 0.532088856654026 -127.081736323729 
! Gamma         9.01122963967384E-05 0.63932287391492 0.000591143270766012 0.639824522637297 
! Port Impedance         29.8958033545138 -0.00405140085182549 5.30002937991165 -0.00482329110483413 
0.03051                        0.532621410022169 84.102646049728  0.84495515157864 -111.563290664283 0.84495515157864 -111.563290664283 0.531972620013708 -127.122601511757 
! Gamma         9.01270724801719E-05 0.639532473193131 0.00059124027716963 0.640034204146149 
! Port Impedance         29.8958026897485 -0.00405073626990021 5.30002858865527 -0.00482250128741068 
0.03052                        0.532504962231156 84.0634731922422 0.845028147876081 -111.603315778472 0.84502814787608 -111.603315778472 0.531856343165309 -127.163463175257 
! Gamma         9.01418461427024E-05 0.639742072468922 0.000591337267677826 0.640243885639117 
! Port Impedance         29.8958020253096 -0.00405007201427979 5.3000277977879  -0.00482171185804108 
0.03053                        0.532388473929172 84.0242907726351 0.845101147281177 -111.643343906045 0.845101147281177 -111.643343906045 0.531740026124984 -127.204321307236 
! Gamma         9.01566173855218E-05 0.639951671742295 0.000591434242298436 0.640453567116211 
! Port Impedance         29.895801361197  -0.00404940808469703 5.30002700730922 -0.00482092281640752 
0.03054                        0.532271945132496 83.9850987835572 0.845174149766292 -111.68337504718 0.845174149766291 -111.68337504718 0.531623668908933 -127.24517590069 
! Gamma         9.01713862098209E-05 0.640161271013251 0.000591531201039287 0.640663248577437 
! Port Impedance         29.8958006974102 -0.00404874448088501 5.3000262172189  -0.00482013416219255 
0.03055                        0.532155375857454 83.9458972176521 0.845247155303768 -111.723409202055 0.845247155303768 -111.723409202055 0.531507271533401 -127.286026948607 
! Gamma         9.01861526167897E-05 0.640370870281791 0.000591628143908201 0.640872930022803 
! Port Impedance         29.8958000339492 -0.00404808120257714 5.30002542751662 -0.0048193458950791 
0.03056                        0.532038766120421 83.9066860675564 0.845320163865934 -111.763446370844 0.845320163865934 -111.763446370844 0.531390834014681 -127.326874443966 
! Gamma         9.02009166076171E-05 0.640580469547917 0.00059172507091299 0.641082611452316 
! Port Impedance         29.8957993708135 -0.00404741824950712 5.30002463820208 -0.00481855801475043 
0.03057                        0.531922115937818 83.8674653258997 0.845393175425102 -111.803486553724 0.845393175425102 -111.803486553724 0.531274356369115 -127.367718379736 
! Gamma         9.02156781834911E-05 0.64079006881163 0.000591821982061464 0.641292292865986 
! Port Impedance         29.8957987080029 -0.00404675562140895 5.30002384927495 -0.00481777052089018 
0.03058                        0.53180542532611 83.8282349853044 0.845466189953567 -111.843529750868 0.845466189953566 -111.843529750868 0.531157838613089 -127.408558748876 
! Gamma         9.02304373455985E-05 0.64099966807293 0.000591918877361423 0.641501974263819 
! Port Impedance         29.8957980455173 -0.00404609331801695 5.30002306073492 -0.00481698341318236 
0.03059                        0.531688694301814 83.7889950383859 0.845539207423606 -111.883575962447 0.845539207423606 -111.883575962447 0.531041280763037 -127.449395544337 
! Gamma         9.02451940951253E-05 0.641209267331819 0.000592015756820661 0.641711655645823 
! Port Impedance         29.8957973833562 -0.00404543133906572 5.30002227258167 -0.00481619669131132 
0.0306                         0.531571922881489 83.7497454777526 0.84561222780748 -111.923625188635 0.845612227807479 -111.923625188635 0.530924682835441 -127.49022875906 
! Gamma         9.02599484332562E-05 0.641418866588298 0.000592112620446967 0.641921337012006 
! Port Impedance         29.8957967215194 -0.0040447696842902 5.30002148481487 -0.00481541035496178 
0.03061                        0.531455111081746 83.7104862960057 0.845685251077434 -111.9636774296  0.845685251077433 -111.9636774296  0.530808044846829 -127.531058385977 
! Gamma         9.02747003611754E-05 0.641628465842368 0.000592209468248123 0.642131018362375 
! Port Impedance         29.8957960600067 -0.0040441083534256 5.30002069743422 -0.00481462440381883 
0.03062                        0.53133825891924 83.6712174857395 0.845758277205697 -112.003732685511 0.845758277205697 -112.003732685511 0.530691366813778 -127.57188441801 
! Gamma         9.02894498800656E-05 0.641838065094031 0.000592306300231903 0.642340699696938 
! Port Impedance         29.8957953988178 -0.00404344734620743 5.30001991043941 -0.0048138388375679 
0.03063                        0.531221366410674 83.6319390395412 0.845831306164478 -112.043790956538 0.845831306164478 -112.043790956538 0.530574648752908 -127.612706848073 
! Gamma         9.0304196991109E-05 0.642047664343288 0.000592403116406074 0.642550381015703 
! Port Impedance         29.8957947379524 -0.00404278666237152 5.3000191238301  -0.00481305365589478 
0.03064                        0.531104433572799 83.5926509499906 0.845904337925974 -112.083852242845 0.845904337925973 -112.083852242845 0.530457890680891 -127.653525669068 
! Gamma         9.03189416954863E-05 0.642257263590139 0.0005924999167784 0.642760062318678 
! Port Impedance         29.8957940774103 -0.004042126301654 5.30001833760599 -0.00481226885848565 
0.03065                        0.530987460422413 83.5533532096607 0.845977372462362 -112.1239165446  0.845977372462361 -112.1239165446  0.530341092614447 -127.694340873891 
! Gamma         9.03336839943776E-05 0.642466862834586 0.000592596701356636 0.642969743605869 
! Port Impedance         29.8957934171913 -0.0040414662637913 5.30001755176677 -0.00481148444502701 
0.03066                        0.53087044697636 83.5140458111174 0.846050409745801 -112.163983861966 0.846050409745801 -112.163983861966 0.530224254570338 -127.735152455426 
! Gamma         9.03484238889617E-05 0.64267646207663 0.00059269347014853 0.643179424877286 
! Port Impedance         29.8957927572949 -0.00404080654852013 5.30001676631212 -0.00481070041520574 
0.03067                        0.530753393251535 83.4747287469192 0.846123449748439 -112.204054195107 0.846123449748439 -112.204054195107 0.530107376565378 -127.775960406549 
! Gamma         9.03631613804166E-05 0.642886061316273 0.000592790223161824 0.643389106132934 
! Port Impedance         29.895792097721  -0.00404014715557752 5.30001598124172 -0.00480991676870905 
0.03068                        0.530636299264877 83.4354020096178 0.846196492442402 -112.244127544185 0.846196492442401 -112.244127544185 0.529990458616429 -127.816764720126 
! Gamma         9.03778964699195E-05 0.643095660553515 0.000592886960404254 0.643598787372824 
! Port Impedance         29.8957914384694 -0.00403948808470079 5.30001519655527 -0.00480913350522454 
0.03069                        0.530519165033376 83.3960655917575 0.846269537799802 -112.28420390936 0.846269537799802 -112.28420390936 0.529873500740398 -127.857565389012 
! Gamma         9.03926291586463E-05 0.643305259788358 0.00059298368188355 0.643808468596961 
! Port Impedance         29.8957907795397 -0.00403882933562758 5.30001441225244 -0.00480835062444014 
0.0307                         0.530401990574067 83.3567194858756 0.846342585792733 -112.324283290793 0.846342585792733 -112.324283290793 0.529756502954241 -127.898362406057 
! Gamma         9.04073594477718E-05 0.643514859020803 0.000593080387607434 0.644018149805353 
! Port Impedance         29.8957901209317 -0.0040381709080958 5.30001362833293 -0.00480756812604415 
0.03071                        0.530284775904034 83.3173636845021 0.846415636393274 -112.364365688642 0.846415636393273 -112.364365688642 0.529639465274963 -127.939155764096 
! Gamma         9.04220873384704E-05 0.64372445825085 0.000593177077583622 0.644227830998008 
! Port Impedance         29.8957894626451 -0.00403751280184368 5.30001284479642 -0.00480678600972521 
0.03072                        0.53016752104041 83.2779981801601 0.846488689573485 -112.404451103065 0.846488689573485 -112.404451103065 0.529522387719615 -127.979945455959 
! Gamma         9.04368128319149E-05 0.643934057478501 0.000593273751819825 0.644437512174934 
! Port Impedance         29.8957888046797 -0.00403685501660972 5.30001206164261 -0.00480600427517234 
0.03073                        0.530050226000374 83.2386229653651 0.846561745305411 -112.444539534217 0.846561745305411 -112.444539534217 0.529405270305297 -128.020731474464 
! Gamma         9.04515359292776E-05 0.644143656703758 0.000593370410323746 0.644647193336138 
! Port Impedance         29.8957881470352 -0.00403619755213275 5.30001127887116 -0.00480522292207488 
0.03074                        0.529932890801154 83.1992380326259 0.846634803561081 -112.484630982255 0.84663480356108 -112.484630982255 0.529288113049158 -128.061513812421 
! Gamma         9.04662566317293E-05 0.644353255926621 0.00059346705310308 0.644856874481628 
! Port Impedance         29.8957874897114 -0.00403554040815188 5.30001049648179 -0.00480444195012255 
0.03075                        0.529815515460026 83.1598433744438 0.846707864312505 -112.524725447332 0.846707864312505 -112.524725447332 0.529170915968394 -128.10229246263 
! Gamma         9.04809749404403E-05 0.644562855147092 0.000593563680165521 0.645066555611411 
! Port Impedance         29.8957868327079 -0.00403488358440652 5.30000971447417 -0.0048036613590054 
0.03076                        0.529698099994314 83.120438983313  0.84678092753168 -112.5648229296  0.846780927531679 -112.5648229296  0.529053679080248 -128.14306741788 
! Gamma         9.04956908565798E-05 0.644772454365171 0.00059366029151875 0.645276236725495 
! Port Impedance         29.8957861760245 -0.00403422708063636 5.300008932848   -0.00480288114841385 
0.03077                        0.529580644421391 83.0810248517204 0.846853993190582 -112.604923429212 0.846853993190582 -112.604923429212 0.528936402402014 -128.183838670953 
! Gamma         9.05104043813159E-05 0.644982053580861 0.000593756887170446 0.645485917823888 
! Port Impedance         29.8957855196611 -0.00403357089658141 5.30000815160297 -0.00480210131803868 
0.03078                        0.529463148758677 83.0416009721457 0.846927061261175 -112.645026946319 0.846927061261174 -112.645026946319 0.528819085951033 -128.224606214619 
! Gamma         9.05251155158158E-05 0.645191652794161 0.00059385346712828 0.645695598906598 
! Port Impedance         29.8957848636172 -0.00403291503198197 5.30000737073875 -0.00480132186757098 
0.03079                        0.529345613023643 83.0021673370616 0.847000131715401 -112.685133481068 0.847000131715401 -112.685133481068 0.528701729744694 -128.265370041642 