! Touchstone file exported from HFSS 2022.2.0
!        File:           C:/Users/JH218595/Documents/Modeling/WEST ICRH/WEST_ICRH_final.aedt
!        Generated:      9:51:05  mars 24, 2024
!        Design:         WEST-final-bridge
!        Project:        WEST_ICRH_final
!        Setup:          Setup1
!        Solution:       Sweep
!
!Data is not renormalized
# GHz S MA R 5.714405
! Terminal data exported
! Port[1] = 1
! Port[2] = 2
! Port[3] = 3
0.03                           0.0906128978867536 -43.9043934420669 0.704141457344172 165.202237854317 0.704140579565562 165.202223174438 
                               0.704141457344172 165.202237854317 0.541299779382137 171.509785956299 0.459280047721324 -12.8783826637163 
                               0.704140579565562 165.202223174438 0.459280047721324 -12.8783826637163 0.541300658227626 171.509753901649 
! Gamma         -0               0.628753506585164 -0               0.628753506585512 -0               0.628753506585691 
! Port Impedance         5.71440540166337 0                13.605332097045  0                13.6053192249649 0                
0.03001                        0.0906156556414612 -43.919217597952 0.704141269849865 165.197292988664 0.704140391621384 165.197278339626 
                               0.704141269849866 165.197292988664 0.541298433789447 171.506974219242 0.459281877088069 -12.8827253044796 
                               0.704140391621384 165.197278339626 0.459281877088069 -12.8827253044796 0.541299313175388 171.506942221654 
! Gamma         0                0.62896309108736 0                0.62896309108771 0                0.628963091087887 
! Port Impedance         5.71440540166319 0                13.605332097045  0                13.6053192249649 0                
0.03002                        0.0906184147349535 -43.9340418484027 0.704141082265063 165.192348110318 0.704140203586615 165.192333492156 
                               0.704141082265063 165.192348110318 0.541297087806694 171.504162498044 0.459283707049085 -12.8870679952081 
                               0.704140203586615 165.192333492156 0.459283707049085 -12.8870679952081 0.541297967733223 171.504130557581 
! Gamma         0                0.629172675589555 0                0.629172675589908 0                0.629172675590084 
! Port Impedance         5.71440540166301 0                13.605332097045  0                13.6053192249649 0                
0.03003                        0.0906211751676104 -43.9488661933107 0.704140894589732 165.187403219274 0.70414001546122 165.187388632023 
                               0.704140894589732 165.187403219274 0.541295741433924 171.501350792706 0.459285537604355 -12.8914107359181 
                               0.70414001546122 165.187388632023 0.459285537604355 -12.8914107359181 0.541296621901177 171.501318909436 
! Gamma         0                0.62938226009175 0                0.629382260092106 0                0.62938226009228 
! Port Impedance         5.71440540166283 0                13.605332097045  0                13.6053192249649 0                
0.03004                        0.0906239369398124 -43.9636906325675 0.704140706823838 165.182458315529 0.704139827245167 165.182443759223 
                               0.704140706823838 165.182458315529 0.541294394671181 171.498539103235 0.459287368753862 -12.8957535266258 
                               0.704139827245167 165.182443759223 0.459287368753862 -12.8957535266258 0.541295275679294 171.498507277222 
! Gamma         0                0.629591844593946 0                0.629591844594304 0                0.629591844594476 
! Port Impedance         5.71440540166266 0                13.605332097045  0                13.6053192249649 0                
0.03005                        0.0906267000519399 -43.9785151660644 0.704140518967348 165.177513399079 0.704139638938422 165.177498873752 
                               0.704140518967348 165.177513399079 0.541293047518512 171.495727429632 0.459289200497589 -12.9000963673473 
                               0.704139638938422 165.177498873752 0.459289200497589 -12.9000963673473 0.541293929067623 171.495695660943 
! Gamma         0                0.629801429096141 0                0.629801429096502 0                0.629801429096672 
! Port Impedance         5.71440540166249 0                13.6053320970451 0                13.6053192249649 0                
0.03006                        0.0906294645043733 -43.9933397936927 0.704140331020229 165.172568469919 0.704139450540952 165.172553975607 
                               0.704140331020229 165.172568469919 0.541291699975963 171.492915771903 0.459291032835518 -12.904439258099 
                               0.704139450540952 165.172553975607 0.459291032835518 -12.904439258099 0.541292582066206 171.492884060603 
! Gamma         0                0.630011013598336 0                0.630011013598699 0                0.630011013598869 
! Port Impedance         5.71440540166232 0                13.6053320970451 0                13.6053192249649 0                
0.03007                        0.0906322302974932 -44.0081645153437 0.704140142982448 165.167623528045 0.704139262052724 165.167609064783 
                               0.704140142982448 165.167623528045 0.541290352043578 171.490104130051 0.459292865767634 -12.9087821988971 
                               0.704139262052724 165.167609064783 0.459292865767634 -12.9087821988971 0.541291234675091 171.490072476205 
! Gamma         0                0.630220598100532 0                0.630220598100897 0                0.630220598101065 
! Port Impedance         5.71440540166215 0                13.6053320970451 0                13.6053192249649 0                
0.03008                        0.09063499743168 -44.0229893309082 0.704139954853971 165.162678573455 0.704139073473704 165.162664141277 
                               0.704139954853971 165.162678573455 0.541289003721404 171.48729250408  0.459294699293918 -12.9131251897578 
                               0.704139073473704 165.162664141277 0.459294699293918 -12.9131251897578 0.541289886894323 171.487260907754 
! Gamma         0                0.630430182602727 0                0.630430182603095 0                0.630430182603262 
! Port Impedance         5.71440540166199 0                13.6053320970451 0                13.6053192249649 0                
0.03009                        0.0906377659073145 -44.0378142402772 0.704139766634766 165.157733606144 0.70413888480386 165.157719205084 
                               0.704139766634766 165.157733606144 0.541287655009487 171.484480893994 0.459296533414354 -12.9174682306973 
                               0.70413888480386 165.157719205084 0.459296533414354 -12.9174682306973 0.541288538723947 171.484449355254 
! Gamma         0                0.630639767104923 0                0.630639767105293 0                0.630639767105458 
! Port Impedance         5.71440540166183 0                13.6053320970451 0                13.6053192249649 0                
0.0301                         0.0906405357247772 -44.0526392433416 0.704139578324798 165.152788626107 0.704138696043158 165.152774256202 
                               0.704139578324798 165.152788626107 0.541286305907872 171.481669299796 0.459298368128925 -12.9218113217318 
                               0.704138696043158 165.152774256202 0.459298368128925 -12.9218113217319 0.541287190164009 171.481637818708 
! Gamma         0                0.630849351607118 0                0.630849351607491 0                0.630849351607655 
! Port Impedance         5.71440540166167 0                13.6053320970451 0                13.605319224965  0                
0.03011                        0.0906433068844488 -44.0674643399919 0.704139389924034 165.147843633342 0.704138507191564 165.147829294625 
                               0.704139389924034 165.147843633342 0.541284956416605 171.478857721492 0.459300203437613 -12.9261544628777 
                               0.704138507191564 165.147829294625 0.459300203437613 -12.9261544628777 0.541285841214555 171.47882629812  
! Gamma         0                0.631058936109313 0                0.631058936109689 0                0.631058936109851 
! Port Impedance         5.71440540166151 0                13.6053320970452 0                13.605319224965  0                
0.03012                        0.0906460793867101 -44.082289530119 0.704139201432441 165.142898627843 0.704138318249046 165.14288432035  
                               0.704139201432442 165.142898627844 0.541283606535731 171.476046159083 0.459302039340401 -12.9304976541511 
                               0.704138318249046 165.14288432035  0.459302039340402 -12.9304976541511 0.541284491875631 171.476014793494 
! Gamma         0                0.631268520611509 0                0.631268520611886 0                0.631268520612048 
! Port Impedance         5.71440540166135 0                13.6053320970452 0                13.605319224965  0                
0.03013                        0.0906488532319419 -44.097114813613 0.704139012849986 165.137953609609 0.70413812921557 165.137939333373 
                               0.704139012849986 165.137953609609 0.541282256265297 171.473234612576 0.459303875837274 -12.9348408955682 
                               0.70413812921557 165.137939333373 0.459303875837274 -12.9348408955682 0.541283142147282 171.473203304835 
! Gamma         0                0.631478105113704 0                0.631478105114084 0                0.631478105114244 
! Port Impedance         5.7144054016612  0                13.6053320970452 0                13.605319224965  0                
0.03014                        0.090651628420525 -44.1119401903645 0.704138824176636 165.133008578633 0.704137940091103 165.132994333691 
                               0.704138824176636 165.133008578633 0.541280905605349 171.470423081972 0.459305712928212 -12.9391841871452 
                               0.704137940091103 165.132994333691 0.459305712928212 -12.9391841871452 0.541281792029554 171.470391832146 
! Gamma         0                0.631687689615899 0                0.631687689616282 0                0.63168768961644 
! Port Impedance         5.71440540166104 0                13.6053320970452 0                13.605319224965  0                
0.03015                        0.0906544049528403 -44.1267656602636 0.704138635412356 165.128063534913 0.704137750875611 165.128049321299 
                               0.704138635412356 165.128063534913 0.541279554555931 171.467611567277 0.459307550613199 -12.9435275288985 
                               0.704137750875611 165.128049321299 0.4593075506132  -12.9435275288985 0.541280441522492 171.467580375431 
! Gamma         0                0.631897274118095 0                0.631897274118479 0                0.631897274118637 
! Port Impedance         5.71440540166089 0                13.6053320970452 0                13.605319224965  0                
0.03016                        0.0906571828292688 -44.1415912232004 0.704138446557114 165.123118478444 0.704137561569062 165.123104296193 
                               0.704138446557115 165.123118478444 0.541278203117091 171.464800068493 0.459309388892219 -12.9478709208441 
                               0.704137561569062 165.123104296193 0.459309388892219 -12.9478709208442 0.541279090626144 171.464768934693 
! Gamma         0                0.63210685862029 0                0.632106858620677 0                0.632106858620834 
! Port Impedance         5.71440540166074 0                13.6053320970453 0                13.605319224965  0                
0.03017                        0.0906599620501914 -44.156416879065 0.704138257610876 165.118173409223 0.704137372171421 165.118159258369 
                               0.704138257610876 165.118173409223 0.541276851288873 171.461988585626 0.459311227765254 -12.9522143629985 
                               0.704137372171421 165.118159258369 0.459311227765254 -12.9522143629985 0.541277739340553 171.461957509938 
! Gamma         0                0.632316443122485 0                0.632316443122875 0                0.63231644312303 
! Port Impedance         5.7144054016606  0                13.6053320970453 0                13.605319224965  0                
0.03018                        0.0906627426159892 -44.1712426277472 0.704138068573609 165.113228327245 0.704137182682656 165.113214207824 
                               0.704138068573609 165.113228327245 0.541275499071324 171.459177118678 0.459313067232286 -12.9565578553776 
                               0.704137182682656 165.113214207824 0.459313067232287 -12.9565578553776 0.541276387665767 171.459146101168 
! Gamma         0                0.632526027624681 0                0.632526027625072 0                0.632526027625227 
! Port Impedance         5.71440540166045 0                13.6053320970453 0                13.605319224965  0                
0.03019                        0.0906655245270433 -44.1860684691369 0.704137879445279 165.108283232507 0.704136993102732 165.108269144554 
                               0.704137879445279 165.108283232507 0.54127414646449 171.456365667654 0.4593149072933  -12.9609013979979 
                               0.704136993102732 165.108269144554 0.4593149072933  -12.9609013979979 0.541275035601831 171.456334708388 
! Gamma         0                0.632735612126876 0                0.63273561212727 0                0.632735612127424 
! Port Impedance         5.71440540166031 0                13.6053320970453 0                13.605319224965  0                
0.0302                         0.0906683077837349 -44.2008944031236 0.704137690225854 165.103338125006 0.704136803431618 165.103324068554 
                               0.704137690225854 165.103338125006 0.541272793468416 171.453554232558 0.459316747948277 -12.9652449908755 
                               0.704136803431618 165.103324068554 0.459316747948277 -12.9652449908755 0.54127368314879 171.453523331601 
! Gamma         0                0.632945196629072 0                0.632945196629467 0                0.63294519662962 
! Port Impedance         5.71440540166017 0                13.6053320970453 0                13.605319224965  0                
0.03021                        0.0906710923864451 -44.2157204295969 0.704137500915298 165.098393004736 0.704136613669278 165.098378979822 
                               0.704137500915299 165.098393004736 0.541271440083149 171.450742813393 0.459318589197201 -12.9695886340266 
                               0.704136613669278 165.098378979822 0.459318589197201 -12.9695886340266 0.541272330306692 171.450711970811 
! Gamma         0                0.633154781131267 0                0.633154781131665 0                0.633154781131817 
! Port Impedance         5.71440540166003 0                13.6053320970454 0                13.605319224965  0                
0.03022                        0.0906738783355552 -44.2305465484462 0.70413731151358 165.093447871694 0.704136423815681 165.093433878352 
                               0.70413731151358 165.093447871694 0.541270086308733 171.447931410163 0.459320431040054 -12.9739323274675 
                               0.704136423815681 165.093433878352 0.459320431040054 -12.9739323274675 0.541270977075581 171.447900626023 
! Gamma         0                0.633364365633462 0                0.633364365633862 0                0.633364365634014 
! Port Impedance         5.71440540165989 0                13.6053320970454 0                13.6053192249651 0                
0.03023                        0.0906766656314465 -44.2453727595608 0.704137122020666 165.088502725876 0.704136233870792 165.088488764141 
                               0.704137122020666 165.088502725876 0.541268732145217 171.445120022873 0.459322273476819 -12.9782760712144 
                               0.704136233870792 165.088488764141 0.459322273476819 -12.9782760712144 0.541269623455503 171.44508929724  
! Gamma         0                0.633573950135658 0                0.63357395013606 0                0.633573950136211 
! Port Impedance         5.71440540165975 0                13.6053320970454 0                13.6053192249651 0                
0.03024                        0.0906794542745002 -44.2601990628299 0.704136932436522 165.083557567278 0.704136043834579 165.083543637185 
                               0.704136932436522 165.083557567278 0.541267377592644 171.442308651525 0.45932411650748 -12.9826198652834 
                               0.704136043834579 165.083543637185 0.45932411650748 -12.9826198652834 0.541268269446504 171.442277984466 
! Gamma         0                0.633783534637853 0                0.633783534638257 0                0.633783534638408 
! Port Impedance         5.71440540165962 0                13.6053320970454 0                13.6053192249651 0                
0.03025                        0.0906822442650979 -44.2750254581427 0.704136742761113 165.078612395896 0.704135853707007 165.078598497481 
                               0.704136742761114 165.078612395896 0.541266022651061 171.439497296125 0.459325960132018 -12.9869637096909 
                               0.704135853707007 165.078598497481 0.459325960132019 -12.9869637096909 0.541266915048631 171.439466687705 
! Gamma         0                0.633993119140048 0                0.633993119140455 0                0.633993119140605 
! Port Impedance         5.71440540165948 0                13.6053320970454 0                13.6053192249651 0                
0.03026                        0.0906850356036208 -44.289851945388 0.704136552994409 165.073667211727 0.704135663488043 165.073653345024 
                               0.704136552994409 165.073667211727 0.541264667320515 171.436685956675 0.459327804350418 -12.991307604453 
                               0.704135663488043 165.073653345024 0.459327804350418 -12.9913076044531 0.541265560261929 171.43665540696  
! Gamma         0                0.634202703642244 0                0.634202703642652 0                0.634202703642802 
! Port Impedance         5.71440540165935 0                13.6053320970455 0                13.6053192249651 0                
0.03027                        0.0906878282904506 -44.3046785244546 0.704136363136375 165.068722014767 0.704135473177654 165.06870817981  
                               0.704136363136375 165.068722014767 0.541263311601051 171.43387463318  0.459329649162662 -12.9956515495861 
                               0.704135473177654 165.06870817981  0.459329649162662 -12.9956515495861 0.541264205086444 171.433844142237 
! Gamma         0                0.634412288144439 0                0.634412288144849 0                0.634412288144999 
! Port Impedance         5.71440540165922 0                13.6053320970455 0                13.6053192249651 0                
0.03028                        0.0906906223259687 -44.3195051952315 0.704136173186976 165.063776805011 0.704135282775807 165.063763001836 
                               0.704136173186976 165.063776805011 0.541261955492715 171.431063325643 0.459331494568732 -12.9999955451061 
                               0.704135282775807 165.063763001836 0.459331494568732 -12.9999955451061 0.541262849522222 171.431032893538 
! Gamma         0                0.634621872646634 0                0.634621872647047 0                0.634621872647196 
! Port Impedance         5.71440540165909 0                13.6053320970455 0                13.6053192249651 0                
0.03029                        0.0906934177105568 -44.3343319576071 0.70413598314618 165.058831582455 0.704135092282467 165.058817811098 
                               0.704135983146181 165.058831582455 0.541260598995554 171.428252034069 0.459333340568611 -13.0043395910295 
                               0.704135092282467 165.058817811098 0.459333340568612 -13.0043395910295 0.54126149356931 171.428221660867 
! Gamma         0                0.63483145714883 0                0.634831457149244 0                0.634831457149393 
! Port Impedance         5.71440540165896 0                13.6053320970455 0                13.6053192249651 0                
0.0303                         0.0906962144445964 -44.3491588114699 0.704135793013954 165.053886347096 0.704134901697602 165.053872607591 
                               0.704135793013954 165.053886347096 0.541259242109613 171.425440758461 0.459335187162283 -13.0086836873724 
                               0.704134901697602 165.053872607591 0.459335187162284 -13.0086836873724 0.541260137227752 171.425410444229 
! Gamma         0                0.635041041651025 0                0.635041041651441 0                0.63504104165159 
! Port Impedance         5.71440540165884 0                13.6053320970455 0                13.6053192249651 0                
0.03031                        0.0906990125284692 -44.3639857567083 0.704135602790263 165.04894109893  0.704134711021177 165.048927391312 
                               0.704135602790263 165.04894109893  0.541257884834938 171.422629498823 0.45933703434973 -13.013027834151 
                               0.704134711021177 165.048927391312 0.459337034349731 -13.0130278341511 0.541258780497595 171.422599243627 
! Gamma         0                0.63525062615322 0                0.635250626153638 0                0.635250626153787 
! Port Impedance         5.71440540165871 0                13.6053320970455 0                13.6053192249651 0                
0.03032                        0.0907018119625569 -44.3788127932107 0.704135412475074 165.043995837953 0.704134520253161 165.043982162258 
                               0.704135412475075 165.043995837953 0.541256527171576 171.41981825516  0.459338882130936 -13.0173720313817 
                               0.704134520253161 165.043982162258 0.459338882130936 -13.0173720313817 0.541257423378886 171.419788059066 
! Gamma         0                0.635460210655416 0                0.635460210655836 0                0.635460210655984 
! Port Impedance         5.71440540165859 0                13.6053320970456 0                13.6053192249652 0                
0.03033                        0.0907046127472415 -44.3936399208651 0.704135222068355 165.039050564161 0.704134329393518 165.039036920423 
                               0.704135222068355 165.039050564161 0.541255169119573 171.417007027474 0.459340730505881 -13.0217162790804 
                               0.704134329393518 165.039036920423 0.459340730505882 -13.0217162790805 0.541256065871669 171.416976890548 
! Gamma         0                0.635669795157611 0                0.635669795158033 0                0.635669795158181 
! Port Impedance         5.71440540165847 0                13.6053320970456 0                13.6053192249652 0                
0.03034                        0.0907074148829046 -44.4084671395597 0.70413503157007 165.03410527755  0.704134138442216 165.034091665804 
                               0.70413503157007 165.03410527755  0.541253810678974 171.414195815769 0.459342579474551 -13.0260605772636 
                               0.704134138442216 165.034091665804 0.459342579474551 -13.0260605772636 0.541254707975993 171.414165738078 
! Gamma         0                0.635879379659807 0                0.63587937966023 0                0.635879379660379 
! Port Impedance         5.71440540165835 0                13.6053320970456 0                13.6053192249652 0                
0.03035                        0.0907102183699281 -44.4232944491822 0.704134840980187 165.029159978116 0.70413394739922 165.029146398398 
                               0.704134840980187 165.029159978116 0.541252451849826 171.411384620051 0.459344429036927 -13.0304049259474 
                               0.704133947399221 165.029146398398 0.459344429036927 -13.0304049259474 0.541253349691901 171.41135460166  
! Gamma         0                0.636088964162002 0                0.636088964162427 0                0.636088964162576 
! Port Impedance         5.71440540165823 0                13.6053320970456 0                13.6053192249652 0                
0.03036                        0.090713023208694 -44.4381218496206 0.704134650298671 165.024214665856 0.704133756264499 165.024201118199 
                               0.704134650298672 165.024214665856 0.541251092632175 171.408573440321 0.459346279192993 -13.034749325148 
                               0.704133756264499 165.024201118199 0.459346279192993 -13.034749325148 0.54125199101944 171.408543481298 
! Gamma         0                0.636298548664197 0                0.636298548664625 0                0.636298548664773 
! Port Impedance         5.71440540165811 0                13.6053320970456 0                13.6053192249652 0                
0.03037                        0.0907158293995842 -44.4529493407625 0.70413445952549 165.019269340765 0.704133565038017 165.019255825206 
                               0.70413445952549 165.019269340765 0.541249733026068 171.405762276585 0.45934812994273 -13.0390937748816 
                               0.704133565038017 165.019255825206 0.459348129942731 -13.0390937748816 0.541250631958658 171.405732376995 
! Gamma         0                0.636508133166393 0                0.636508133166822 0                0.636508133166971 
! Port Impedance         5.71440540165799 0                13.6053320970457 0                13.6053192249652 0                
0.03038                        0.0907186369429807 -44.4677769224956 0.70413426866061 165.014324002839 0.704133373719741 165.014310519413 
                               0.70413426866061 165.014324002839 0.54124837303155 171.402951128846 0.459349981286123 -13.0434382751645 
                               0.704133373719741 165.014310519413 0.459349981286123 -13.0434382751645 0.541249272509598 171.402921288756 
! Gamma         0                0.636717717668588 0                0.636717717669019 0                0.636717717669169 
! Port Impedance         5.71440540165788 0                13.6053320970457 0                13.6053192249652 0                
0.03039                        0.0907214458392656 -44.4826045947072 0.704134077703997 165.009378652075 0.704133182309638 165.009365200816 
                               0.704134077703997 165.009378652075 0.541247012648667 171.400139997109 0.459351833223153 -13.0477828260129 
                               0.704133182309639 165.009365200816 0.459351833223153 -13.0477828260129 0.541247912672309 171.400110216584 
! Gamma         0                0.636927302170783 0                0.636927302171216 0                0.636927302171366 
! Port Impedance         5.71440540165776 0                13.6053320970457 0                13.6053192249652 0                
0.0304                         0.0907242560888211 -44.4974323572847 0.704133886655617 165.004433288468 0.704132990807675 165.004419869413 
                               0.704133886655618 165.004433288468 0.541245651877467 171.397328881376 0.459353685753804 -13.0521274274429 
                               0.704132990807675 165.004419869413 0.459353685753804 -13.052127427443 0.541246552446836 171.397299160483 
! Gamma         0                0.637136886672979 0                0.637136886673413 0                0.637136886673564 
! Port Impedance         5.71440540165765 0                13.6053320970457 0                13.6053192249652 0                
0.03041                        0.0907270676920291 -44.5122602101153 0.704133695515438 164.999487912015 0.704132799213817 164.999474525198 
                               0.704133695515438 164.999487912015 0.541244290717994 171.394517781651 0.459355538878058 -13.0564720794709 
                               0.704132799213817 164.999474525198 0.459355538878058 -13.0564720794709 0.541245191833225 171.394488120458 
! Gamma         0                0.637346471175174 0                0.63734647117561 0                0.637346471175761 
! Port Impedance         5.71440540165754 0                13.6053320970457 0                13.6053192249652 0                
0.03042                        0.0907298806492721 -44.5270881530863 0.704133504283425 164.994542522712 0.704132607528031 164.994529168168 
                               0.704133504283425 164.994542522712 0.541242929170297 171.391706697939 0.459357392595898 -13.0608167821129 
                               0.704132607528031 164.994529168168 0.459357392595899 -13.0608167821129 0.541243830831522 171.391677096511 
! Gamma         0                0.637556055677369 0                0.637556055677807 0                0.637556055677959 
! Port Impedance         5.71440540165743 0                13.6053320970458 0                13.6053192249653 0                
0.03043                        0.0907326949609322 -44.5419161860845 0.704133312959544 164.989597120555 0.704132415750284 164.98958379832  
                               0.704133312959544 164.989597120555 0.541241567234419 171.388895630244 0.459359246907308 -13.0651615353853 
                               0.704132415750284 164.98958379832  0.459359246907308 -13.0651615353853 0.541242469441773 171.388866088647 
! Gamma         0                0.637765640179565 0                0.637765640180004 0                0.637765640180157 
! Port Impedance         5.71440540165732 0                13.6053320970458 0                13.6053192249653 0                
0.03044                        0.0907355106273917 -44.5567443089969 0.704133121543763 164.98465170554  0.704132223880542 164.984638415648 
                               0.704133121543763 164.98465170554  0.541240204910408 171.386084578569 0.459361101812268 -13.0695063393042 