! Touchstone file exported from HFSS 2020.2.0
!        File:           C:/Users/JH218595/Documents/ICRH/WEST/HFSS_antenna_elements/Bridge_ImpTrasnf_Stub.aedt
!        Generated:      5:41:10  juil. 31, 2020
!        Design:         Bridge
!        Project:        Bridge_ImpTrasnf_Stub
!        Setup:          Setup1
!        Solution:       Sweep_operationnal
!
!Data is not renormalized
# GHZ S MA
! Terminal data exported
! Port[1] = 1
! Port[2] = 2
! Port[3] = 3
0.03                           0.146050576671469 -28.2101273015928 0.699418003245626 -14.159764372964 0.699434489754502 -14.1471841806867 
                               0.699418003245626 -14.159764372964 0.571993186087087 170.648736020351 0.428323155709584 -12.5634223041834 
                               0.699434489754502 -14.1471841806867 0.428323155709584 -12.5634223041834 0.571973489509563 170.673983011813 
! Gamma         0.000585852069232981 0.629339984327605 0.00017179238098183 0.628925359843362 0.000172040792122928 0.628925611930258 
! Port Impedance         5.2976213069294  -0.00486471876069219 14.3040651738928 -0.003802068848848 14.2958075485348 -0.0038052927322671 
0.03001                        0.146049501408934 -28.2200092159876 0.69941810401929 -14.1644983923506 0.699434597988236 -14.1519137500868 
                               0.69941810401929 -14.1644983923506 0.57199185286567 170.645646223954 0.428324786396103 -12.5676477543887 
                               0.699434597988236 -14.1519137500868 0.428324786396103 -12.5676477543887 0.57197214723322 170.670902191792 
! Gamma         0.000585947853779654 0.629549668116561 0.000171820448013823 0.629134973439645 0.000172068900324514 0.629135225569226 
! Port Impedance         5.29762050073209 -0.00486390689556626 14.3040645440809 -0.00380143373927188 14.2958069181879 -0.0038046570857102 
0.03002                        0.146048426049783 -28.2298915852557 0.699418204788739 -14.1692324253417 0.699434706221082 -14.156643332837 
                               0.699418204788739 -14.1692324253417 0.571990519198957 170.642556459049 0.428326417588798 -12.5718732488576 
                               0.699434706221082 -14.156643332837 0.428326417588798 -12.5718732488576 0.571970804507217 170.667821403883 
! Gamma         0.000586043628845426 0.629759351886309 0.000171848512269074 0.629344587030298 0.000172097005745289 0.629344839202556 
! Port Impedance         5.29761969492339 -0.00486309544863943 14.3040639145724 -0.00380079895698341 14.2958062881447 -0.00380402176671689 
0.03003                        0.146047350594301 -28.2397744095135 0.699418305553946 -14.1739664719432 0.699434814453015 -14.161372928943 
                               0.699418305553946 -14.1739664719431 0.571989185086991 170.63946672565  0.428328049287681 -12.5760987876103 
                               0.699434814453015 -14.161372928943 0.428328049287681 -12.5760987876103 0.571969461331597 170.664740648096 
! Gamma         0.000586139394423836 0.629969035636854 0.000171876573745686 0.629554200615321 0.000172125108383351 0.629554452830249 
! Port Impedance         5.29761888950298 -0.00486228441952014 14.3040632853672 -0.00380016450167594 14.2958056584051 -0.00380338677498029 
0.03004                        0.146046275042777 -28.2496576888775 0.699418406314886 -14.1787005321609 0.69943492268401 -14.1661025384107 
                               0.699418406314886 -14.1787005321609 0.571987850529817 170.63637702377  0.428329681492767 -12.5803243706672 
                               0.69943492268401 -14.1661025384107 0.428329681492767 -12.5803243706672 0.571968117706402 170.661659924447 
! Gamma         0.000586235150508434 0.630178719368206 0.000171904632441764 0.62976381419472 0.000172153208236806 0.629764066452308 
! Port Impedance         5.29761808447057 -0.00486147380781743 14.304062656465  -0.00379953037304328 14.2958050289687 -0.00380275211019392 
0.03005                        0.146045199395496 -28.2595414234641 0.699418507071532 -14.1834346060007 0.699435030914041 -14.1708321612458 
                               0.699418507071532 -14.1834346060007 0.571986515527476 170.633287353422 0.428331314204068 -12.5845499980486 
                               0.699435030914041 -14.1708321612458 0.428331314204068 -12.5845499980486 0.571966773631673 170.658579232948 
! Gamma         0.000586330897092789 0.630388403080374 0.000171932688355421 0.629973427768494 0.000172181305303761 0.629973680068735 
! Port Impedance         5.29761727982585 -0.00486066361314086 14.3040620278656 -0.00379889657077964 14.2958043998354 -0.00380211777205177 
0.03006                        0.146044123652747 -28.2694256133898 0.69941860782386 -14.1881686934684 0.699435139143085 -14.175561797454 
                               0.69941860782386 -14.1881686934684 0.57198518008001 170.630197714619 0.428332947421596 -12.5887756697748 
                               0.699435139143085 -14.175561797454 0.428332947421596 -12.5887756697748 0.571965429107454 170.655498573613 
! Gamma         0.000586426634170484 0.630598086773363 0.000171960741484773 0.630183041336647 0.00017220939958233 0.630183293679532 
! Port Impedance         5.2976164755685  -0.00485985383510056 14.3040613995687 -0.0037982630945797 14.2958037710048 -0.00380148376024823 
0.03007                        0.146043047814815 -28.2793102587708 0.699418708571842 -14.1929027945699 0.699435247371114 -14.1802914470412 
                               0.699418708571842 -14.1929027945699 0.571983844187464 170.627108107374 0.428334581145366 -12.5930013858661 
                               0.699435247371114 -14.1802914470412 0.428334581145366 -12.5930013858661 0.571964084133785 170.652417946455 
! Gamma         0.000586522361735121 0.630807770447183 0.000171988791827939 0.630392654899181 0.00017223749107063 0.630392907284702 
! Port Impedance         5.29761567169821 -0.00485904447330721 14.3040607715741 -0.00379762994413856 14.2958031424768 -0.00380085007447816 
0.03008                        0.146041971881989 -28.2891953597236 0.699418809315453 -14.197636909311 0.699435355598106 -14.185021110013 
                               0.699418809315453 -14.197636909311 0.571982507849879 170.624018531701 0.42833621537539 -12.5972271463427 
                               0.699435355598106 -14.185021110013 0.42833621537539 -12.5972271463427 0.57196273871071 170.649337351488 
! Gamma         0.000586618079780312 0.631017454101842 0.000172016839383044 0.630602268456099 0.000172265579766783 0.630602520884247 
! Port Impedance         5.2976148682147  -0.00485823552737204 14.3040601438816 -0.00379699711915173 14.2958025142511 -0.00380021671443682 
0.03009                        0.146040895854555 -28.2990809163643 0.699418910054667 -14.2023710376976 0.699435463824034 -14.1897507863753 
                               0.699418910054667 -14.2023710376976 0.571981171067298 170.620928987613 0.42833785011168 -12.601452951225 
                               0.699435463824034 -14.1897507863753 0.42833785011168 -12.601452951225 0.571961392838271 170.646256788724 
! Gamma         0.00058671378829969 0.631227137737348 0.00017204488414822 0.630811882007402 0.000172293665668918 0.63081213447817 
! Port Impedance         5.29761406511763 -0.00485742699690683 14.3040595164909 -0.00379636461931519 14.2958018863275 -0.00379958367981992 
0.0301                         0.146039819732802 -28.3089669288093 0.699419010789459 -14.2071051797355 0.699435572048874 -14.1944804761337 
                               0.699419010789459 -14.2071051797355 0.571979833839765 170.617839475122 0.428339485354251 -12.6056788005332 
                               0.699435572048874 -14.1944804761338 0.428339485354251 -12.6056788005332 0.571960046516509 170.643176258177 
! Gamma         0.000586809487286902 0.631436821353708 0.000172072926121599 0.631021495553094 0.000172321748775165 0.631021748066473 
! Port Impedance         5.29761326240673 -0.00485661888152391 14.3040588894018 -0.00379573244432531 14.2958012587057 -0.00379895097032359 
0.03011                        0.146038743517017 -28.3188533971747 0.699419111519802 -14.2118393354305 0.699435680272601 -14.1992101792942 
                               0.699419111519802 -14.2118393354305 0.571978496167324 170.614749994243 0.428341121103115 -12.6099046942876 
                               0.699435680272601 -14.1992101792942 0.428341121103115 -12.6099046942876 0.571958699745468 170.640095759862 
! Gamma         0.000586905176735608 0.631646504950931 0.000172100965301322 0.631231109093176 0.00017234982908366 0.631231361649158 
! Port Impedance         5.29761246008166 -0.00485581118083615 14.3040582626139 -0.00379510059387893 14.2958006313856 -0.00379831858564441 
0.03012                        0.146037667207488 -28.3287403215769 0.69941921224567 -14.2165735047885 0.699435788495189 -14.2039398958624 
                               0.69941921224567 -14.2165735047885 0.571977158050016 170.611660544987 0.428342757358286 -12.6141306325086 
                               0.699435788495189 -14.2039398958624 0.428342757358286 -12.6141306325086 0.571957352525189 170.637015293789 
! Gamma         0.000587000856639487 0.631856188529025 0.00017212900168553 0.63144072262765 0.000172377906592545 0.631440975226228 
! Port Impedance         5.29761165814214 -0.00485500389445699 14.3040576361272 -0.00379446906767329 14.2958000043667 -0.00379768652547935 
0.03013                        0.146036590804503 -28.3386277021319 0.699419312967038 -14.2213076878153 0.699435896716614 -14.2086696258441 
                               0.699419312967038 -14.2213076878153 0.571975819487885 170.608571127369 0.428344394119776 -12.6183566152164 
                               0.699435896716614 -14.2086696258441 0.428344394119776 -12.6183566152164 0.571956004855716 170.633934859975 
! Gamma         0.000587096526992233 0.632065872087998 0.000172157035272374 0.63165033615652 0.000172405981299965 0.631650588797684 
! Port Impedance         5.29761085658786 -0.0048541970220004 14.3040570099414 -0.00379383786540606 14.295799377649  -0.00379705478952586 
0.03014                        0.146035514308349 -28.3485155389558 0.69941941368388 -14.2260418845169 0.69943600493685 -14.2133993692451 
                               0.69941941368388 -14.2260418845169 0.571974480480974 170.605481741402 0.428346031387598 -12.6225826424313 
                               0.69943600493685 -14.2133993692451 0.428346031387598 -12.6225826424313 0.571954656737091 170.630854458431 
! Gamma         0.000587192187787555 0.632275555627857 0.000172185066060005 0.631859949679788 0.000172434053204069 0.63186020236353 
! Port Impedance         5.29761005541851 -0.0048533905630809 14.3040563840562 -0.00379320698677537 14.2957987512322 -0.00379642337748177 
0.03015                        0.146034437719316 -28.3584038321647 0.699419514396169 -14.230776094899 0.699436113155873 -14.2181291260711 
                               0.699419514396169 -14.230776094899 0.571973141029326 170.602392387098 0.428347669161767 -12.6268087141735 
                               0.699436113155873 -14.2181291260711 0.428347669161767 -12.6268087141735 0.571953308169355 170.62777408917  
! Gamma         0.000587287839019177 0.632485239148612 0.00017221309404658 0.632069563197455 0.000172462122303013 0.632069815923768 
! Port Impedance         5.29760925463378 -0.00485258451731355 14.3040557584714 -0.00379257643147972 14.295798125116  -0.00379579228904537 
0.03016                        0.14603336103769 -28.3682925818748 0.69941961510388 -14.2355103189674 0.699436221373658 -14.2228588963279 
                               0.699419615103881 -14.2355103189674 0.571971801132984 170.59930306447  0.428349307442295 -12.6310348304634 
                               0.699436221373658 -14.2228588963279 0.428349307442295 -12.6310348304634 0.571951959152553 170.624693752207 
! Gamma         0.00058738348068084 0.63269492265027 0.000172241119230262 0.632279176709525 0.000172490188594955 0.632279429478399 
! Port Impedance         5.29760845423339 -0.00485177888431395 14.3040551331867 -0.00379194619921808 14.2957974993002 -0.00379516152391536 
0.03017                        0.146032284263762 -28.3781817882019 0.699419715806988 -14.2402445567281 0.699436329590179 -14.2275886800213 
                               0.699419715806988 -14.2402445567281 0.571970460791993 170.596213773533 0.428350946229195 -12.6352609913211 
                               0.699436329590179 -14.2275886800213 0.428350946229196 -12.6352609913211 0.571950609686726 170.621613447555 
! Gamma         0.000587479112766299 0.63290460613284 0.000172269141609216 0.632488790216   0.000172518252078059 0.632489043027428 
! Port Impedance         5.29760765421701 -0.00485097366369826 14.3040545082019 -0.00379131628968984 14.2957968737846 -0.00379453108179087 
0.03018                        0.146031207397819 -28.3880714512621 0.699419816505465 -14.2449788081869 0.699436437805412 -14.2323184771571 
                               0.699419816505465 -14.2449788081869 0.571969120006394 170.593124514299 0.428352585522481 -12.6394871967671 
                               0.699436437805412 -14.2323184771571 0.428352585522481 -12.6394871967671 0.571949259771916 170.618533175227 
! Gamma         0.000587574735269326 0.633114289596328 0.000172297161181614 0.632698403716881 0.000172546312750494 0.632698656570855 
! Port Impedance         5.29760685458435 -0.00485016885508318 14.3040538835168 -0.0037906867025948 14.2957962485689 -0.00379390096237146 
0.03019                        0.146030130440151 -28.3979615711714 0.699419917199287 -14.2497130733497 0.699436546019331 -14.2370482877409 
                               0.699419917199287 -14.2497130733497 0.571967778776232 170.590035286781 0.428354225322167 -12.6437134468216 
                               0.699436546019331 -14.2370482877409 0.428354225322166 -12.6437134468216 0.571947909408168 170.615452935236 
! Gamma         0.000587670348183707 0.633323973040744 0.000172325177945632 0.632908017212173 0.000172574370610432 0.632908270108683 
! Port Impedance         5.29760605533512 -0.00484936445808592 14.3040532591312 -0.00379005743763319 14.2957956236529 -0.00379327116535711 
0.0302                         0.146029053391045 -28.4078521480456 0.699420017888427 -14.2544473522222 0.699436654231911 -14.2417781117787 
                               0.699420017888427 -14.2544473522222 0.57196643710155 170.586946090992 0.428355865628264 -12.6479397415047 
                               0.699436654231911 -14.2417781117787 0.428355865628264 -12.6479397415047 0.571946558595523 170.612372727596 
! Gamma         0.000587765951503245 0.633533656466095 0.000172353191899449 0.633117630701875 0.000172602425656051 0.633117883640915 
! Port Impedance         5.29760525646899 -0.00484856047232427 14.3040526350447 -0.00378942849450567 14.2957949990363 -0.0037926416904482 
0.03021                        0.146027976250791 -28.4177431820006 0.699420118572859 -14.2591816448104 0.699436762443129 -14.2465079492762 
                               0.699420118572859 -14.2591816448104 0.571965094982392 170.583856926946 0.428357506440787 -12.6521660808369 
                               0.699436762443129 -14.2465079492762 0.428357506440787 -12.6521660808369 0.571945207334025 170.609292552319 
! Gamma         0.000587861545221758 0.633743339872391 0.00017238120304125 0.633327244185993 0.000172630477885533 0.633327497167553 
! Port Impedance         5.29760445798569 -0.00484775689741654 14.3040520112573 -0.0037887998729133 14.295794374719  -0.00379201253734559 
0.03022                        0.146026899019678 -28.4276346731524 0.699420219252558 -14.2639159511201 0.699436870652957 -14.251237800239 
                               0.699420219252557 -14.2639159511201 0.571963752418799 170.580767794656 0.428359147759748 -12.6563924648383 
                               0.699436870652957 -14.251237800239 0.428359147759748 -12.6563924648383 0.571943855623715 170.606212409421 
! Gamma         0.000587957129333078 0.633953023259638 0.000172409211369224 0.633536857664526 0.000172658527297064 0.6335371106886  
! Port Impedance         5.29760365988489 -0.00484695373298157 14.3040513877685 -0.00378817157255759 14.2957937507007 -0.00379138370575049 
0.03023                        0.146025821697995 -28.4375266216166 0.699420319927497 -14.2686502711571 0.699436978861372 -14.2559676646731 
                               0.699420319927497 -14.2686502711571 0.571962409410818 170.577678694134 0.428360789585163 -12.6606188935292 
                               0.699436978861372 -14.2559676646731 0.428360789585163 -12.6606188935292 0.571942503464638 170.603132298912 
! Gamma         0.000588052703831055 0.634162706627844 0.000172437216881565 0.633746471137479 0.000172686573888835 0.633746724204057 
! Port Impedance         5.29760286216631 -0.00484615097863875 14.3040507645783 -0.00378754359314046 14.2957931269811 -0.0037907551953646 
0.03024                        0.146024744286032 -28.4474190275091 0.69942042059765 -14.2733846049274 0.699437087068348 -14.2606975425842 
                               0.69942042059765 -14.2733846049274 0.571961065958489 170.574589625394 0.428362431917043 -12.6648453669299 
                               0.699437087068348 -14.2606975425842 0.428362431917042 -12.6648453669299 0.571941150856835 170.600052220808 
! Gamma         0.000588148268709552 0.634372389977018 0.000172465219576471 0.633956084604853 0.000172714617659041 0.633956337713927 
! Port Impedance         5.29760206482964 -0.00484534863400801 14.3040501416863 -0.00378691593436424 14.2957925035601 -0.00379012700588998 
0.03025                        0.146023666784077 -28.4573118909456 0.699420521262993 -14.2781189524367 0.69943719527386 -14.265427433978 
                               0.699420521262993 -14.2781189524367 0.571959722061859 170.571500588449 0.428364074755402 -12.6690718850607 
                               0.69943719527386 -14.265427433978 0.428364074755402 -12.6690718850607 0.57193979780035 170.596972175121 
! Gamma         0.00058824382396245 0.634582073307169 0.000172493219452144 0.63416569806665 0.000172742658605884 0.634165951218213 
! Port Impedance         5.29760126787458 -0.00484454669870979 14.3040495190923 -0.00378628859593169 14.2957918804373 -0.00378949913702916 
0.03026                        0.146022589192422 -28.4672052120418 0.699420621923498 -14.2828533136909 0.699437303477884 -14.2701573388604 
                               0.699420621923498 -14.2828533136909 0.571958377720969 170.568411583313 0.428365718100253 -12.6732984479417 
                               0.699437303477884 -14.2701573388604 0.428365718100253 -12.6732984479417 0.571938444295226 170.593892161865 
! Gamma         0.000588339369583643 0.634791756618303 0.000172521216506793 0.634375311522874 0.000172770696727567 0.634375564716917 
! Port Impedance         5.29760047130083 -0.00484374517236511 14.3040488967962 -0.00378566157754598 14.2957912576126 -0.00378887158848505 
0.03027                        0.146021511511354 -28.4770989909135 0.69942072257914 -14.2875876886959 0.699437411680394 -14.2748872572371 
                               0.69942072257914 -14.2875876886959 0.571957032935865 170.565322609997 0.428367361951611 -12.6775250555933 
                               0.699437411680394 -14.2748872572371 0.428367361951611 -12.6775250555933 0.571937090341505 170.590812181053 
! Gamma         0.000588434905567041 0.635001439910431 0.000172549210738629 0.634584924973526 0.000172798732022299 0.634585178210041 
! Port Impedance         5.2975996751081  -0.00484294405459546 14.3040482747976 -0.0037850348789107 14.2957906350856 -0.00378824435996099 
0.03028                        0.146020433741165 -28.4869932276762 0.699420823229893 -14.2923220774576 0.699437519881365 -14.2796171891139 
                               0.699420823229893 -14.2923220774576 0.571955687706588 170.562233668517 0.428369006309487 -12.6817517080357 
                               0.699437519881365 -14.2796171891139 0.428369006309487 -12.6817517080357 0.571935735939232 170.587732232698 
! Gamma         0.00058853043190657 0.635211123183558 0.000172577202145867 0.63479453841861 0.000172826764488295 0.634794791697588 
! Port Impedance         5.29759887929608 -0.00484214334502293 14.3040476530963 -0.00378440849972988 14.2957900128563 -0.00378761745116076 
0.03029                        0.146019355882144 -28.4968879224455 0.699420923875731 -14.2970564799817 0.699437628080772 -14.2843471344965 
                               0.699420923875731 -14.2970564799817 0.571954342033185 170.559144758883 0.428370651173898 -12.6859784052891 
                               0.699437628080772 -14.2843471344965 0.428370651173898 -12.6859784052891 0.571934381088448 170.584652316813 
! Gamma         0.000588625948596171 0.635420806437695 0.00017260519072673 0.635004151858126 0.000172854794123773 0.63500440517956 
! Port Impedance         5.29759808386447 -0.00484134304327009 14.3040470316922 -0.00378378243970792 14.2957893909243 -0.00378699086178853 
0.0303                         0.146018277934581 -28.506783075337 0.699421024516628 -14.3017908962742 0.699437736278591 -14.2890770933908 
                               0.699421024516628 -14.3017908962742 0.571952995915697 170.55605588111  0.428372296544854 -12.6902051473739 
                               0.699437736278591 -14.2890770933908 0.428372296544854 -12.6902051473739 0.571933025789197 170.581572433413 
! Gamma         0.0005887214556298 0.635630489672848 0.000172633176479441 0.635213765292078 0.000172882820926954 0.635214018655959 
! Port Impedance         5.29759728881298 -0.00484054314896006 14.3040464105848 -0.00378315669854968 14.2957887692895 -0.00378636459154888 
0.03031                        0.146017199898767 -28.5166786864663 0.699421125152559 -14.3065253263409 0.699437844474795 -14.2938070658025 
                               0.699421125152559 -14.3065253263409 0.571951649354169 170.552967035211 0.42837394242237 -12.6944319343101 
                               0.699437844474795 -14.2938070658025 0.42837394242237 -12.6944319343101 0.571931670041523 170.578492582509 
! Gamma         0.000588816953001428 0.635840172889026 0.000172661159402231 0.635423378720468 0.000172910844896067 0.635423632126789 
! Port Impedance         5.29759649414131 -0.00483974366171649 14.3040457897742 -0.00378253127596041 14.2957881479515 -0.00378573864014683 
0.03032                        0.146016121774991 -28.5265747559489 0.699421225783496 -14.3112597701876 0.69943795266936 -14.2985370517375 
                               0.699421225783496 -14.3112597701876 0.571950302348646 170.549878221199 0.42837558880646 -12.6986587661182 
                               0.69943795266936 -14.2985370517375 0.42837558880646 -12.6986587661182 0.571930313845467 170.575412764117 
! Gamma         0.000588912440705044 0.636049856086237 0.000172689139493335 0.635632992143299 0.000172938866029343 0.63563324559205 
! Port Impedance         5.29759569984916 -0.00483894458116355 14.3040451692599 -0.00378190617164578 14.2957875269101 -0.00378511300728781 
0.03033                        0.146015043563545 -28.5364712839002 0.699421326409414 -14.3159942278203 0.699438060862261 -14.3032670512014 
                               0.699421326409414 -14.3159942278203 0.571948954899169 170.546789439087 0.428377235697137 -12.7028856428182 
                               0.699438060862261 -14.3032670512014 0.428377235697137 -12.7028856428182 0.571928957201075 170.572332978248 
! Gamma         0.000589007918734647 0.636259539264489 0.00017271711675099 0.635842605560572 0.000172966884325017 0.635842859051747 
! Port Impedance         5.29759490593624 -0.00483814590692596 14.3040445490418 -0.00378128138531187 14.2957869061652 -0.00378448769267765 
0.03034                        0.146013965264718 -28.5463682704357 0.699421427030289 -14.3207286992448 0.699438169053473 -14.3079970642   
                               0.699421427030289 -14.3207286992448 0.571947607005785 170.543700688888 0.428378883094415 -12.7071125644305 
                               0.699438169053473 -14.3079970642   0.428378883094415 -12.7071125644305 0.571927600108389 170.569253224916 
! Gamma         0.000589103387084257 0.636469222423791 0.000172745091173441 0.636052218972291 0.000172994899781332 0.63605247250588 
! Port Impedance         5.29759411240224 -0.00483734763862895 14.3040439291196 -0.00378065691666518 14.2957862857165 -0.00378386269602259 
0.03035                        0.146012886878803 -28.5562657156707 0.699421527646092 -14.3254631844669 0.699438277242971 -14.3127270907392 
                               0.699421527646092 -14.3254631844669 0.571946258668536 170.540611970616 0.428380530998307 -12.7113395309753 
                               0.699438277242971 -14.3127270907392 0.428380530998307 -12.7113395309753 0.571926242567451 170.566173504135 
! Gamma         0.000589198845747905 0.636678905564151 0.000172773062758934 0.636261832378458 0.000173022912396531 0.636262085954453 
! Port Impedance         5.29759331924687 -0.00483654977589826 14.3040433094931 -0.00378003276541262 14.2957856655637 -0.0037832380170293 
0.03036                        0.146011808406088 -28.5661636197207 0.699421628256799 -14.3301976834926 0.69943838543073 -14.3174571308248 
                               0.699421628256799 -14.3301976834926 0.571944909887467 170.537523284282 0.428382179408828 -12.7155665424729 
                               0.69943838543073 -14.3174571308248 0.428382179408828 -12.7155665424729 0.571924884578307 170.563093815918 
! Gamma         0.00058929429471964 0.636888588685576 0.000172801031505722 0.636471445779074 0.000173050922168865 0.636471699397468 
! Port Impedance         5.29759252646984 -0.00483575231836018 14.3040426901621 -0.0037794089312615 14.2957850457066 -0.00378261365540486 
0.03037                        0.146010729846867 -28.5760619827009 0.699421728862383 -14.3349321963276 0.699438493616724 -14.3221871844624 
                               0.699421728862383 -14.3349321963276 0.571943560662622 170.534434629902 0.428383828325989 -12.7197935989433 
                               0.699438493616724 -14.3221871844624 0.428383828325989 -12.7197935989433 0.571923526140998 170.560014160277 
! Gamma         0.000589389733993524 0.637098271788076 0.000172828997412061 0.636681059174143 0.000173078929096587 0.636681312834927 
! Port Impedance         5.29759173407085 -0.00483495526564152 14.3040420711263 -0.00377878541391956 14.2957844261451 -0.00378198961085674 
0.03038                        0.146009651201429 -28.5859608047267 0.699421829462819 -14.3396667229779 0.699438601800929 -14.326917251658 
                               0.699421829462819 -14.3396667229779 0.571942210994045 170.531346007486 0.428385477749806 -12.724020700407 
                               0.69943860180093 -14.326917251658 0.428385477749806 -12.724020700407 0.571922167255569 170.556934537228 
! Gamma         0.000589485163563636 0.637307954871657 0.000172856960476213 0.636890672563667 0.000173106933177956 0.636890926266833 
! Port Impedance         5.2975909420496  -0.0048341586173696 14.3040414523856 -0.00377816221309493 14.2957838068788 -0.00378136588309284 
0.03039                        0.146008572470065 -28.5958600859133 0.699421930058081 -14.3444012634493 0.69943870998332 -14.3316473324172 
                               0.699421930058081 -14.3444012634493 0.571940860881781 170.52825741705  0.428387127680292 -12.7282478468841 
                               0.69943870998332 -14.3316473324172 0.428387127680292 -12.7282478468841 0.571920807922063 170.553854946781 
! Gamma         0.000589580583424068 0.637517637936329 0.000172884920696443 0.637100285947648 0.000173134934411235 0.637100539693188 
! Port Impedance         5.2975901504058  -0.00483336237317228 14.3040408339396 -0.00377753932849615 14.2957831879075 -0.00378074247182146 
0.0304                         0.146007493653068 -28.605759826376 0.699422030648142 -14.3491358177477 0.699438818163871 -14.3363774267459 
                               0.699422030648142 -14.3491358177477 0.571939510325872 170.525168858605 0.428388778117461 -12.7324750383948 
                               0.699438818163871 -14.3363774267459 0.428388778117461 -12.7324750383948 0.571919448140524 170.550775388952 
! Gamma         0.00058967599356893 0.6377273209821  0.000172912878071021 0.637309899326089 0.000173162932794691 0.637310153113995 
! Port Impedance         5.29758935913916 -0.00483256653267792 14.3040402157881 -0.0037769167598322 14.295782569231  -0.00378011937675132 
0.03041                        0.146006414750729 -28.6156600262299 0.699422131232977 -14.3538703858789 0.699438926342558 -14.3411075346498 
                               0.699422131232977 -14.3538703858789 0.571938159326365 170.522080332165 0.428390429061326 -12.7367022749594 
                               0.699438926342558 -14.3411075346498 0.428390429061326 -12.7367022749594 0.571918087910995 170.547695863753 
! Gamma         0.000589771393992345 0.637937004008977 0.000172940832598222 0.637519512698992 0.000173190928326596 0.637519766529255 
! Port Impedance         5.29758856824938 -0.00483177109551542 14.304039597931  -0.00377629450681243 14.2957819508491 -0.00377949659759153 
0.03042                        0.146005335763339 -28.6255606855903 0.69942223181256 -14.3586049678488 0.699439034519355 -14.3458376561348 
                               0.69942223181256 -14.3586049678488 0.571936807883302 170.518991837743 0.428392080511901 -12.7409295565981 
                               0.699439034519355 -14.3458376561348 0.428392080511901 -12.7409295565981 0.57191672723352 170.544616371198 
! Gamma         0.000589866784688451 0.63814668701697 0.000172968784276323 0.637729126066359 0.000173218921005227 0.637729379938972 