! Touchstone file exported from HFSS 2021.1.0
!        File:           C:/Users/Vins/Desktop/Test HFSS plasma/Paper/3D WEST/New tests/3004 - nopol - third -62/Full_torus_ICLH_plasma_6s.aedt
!        Generated:      3:26:12  sept. 11, 2023
!        Design:         HFSSDesign1
!        Project:        Full_torus_ICLH_plasma_6s
!        Setup:          Setup1
!        Solution:       LastAdaptive
!
! Variables:
!        RLH1 = 3100mm
!        Rant = 3004mm
!        Rant2 = 3004mm
!        Rant3 = 3004mm
!        Rcp2 = 2530mm
!        Rpla = 465mm
!        X_deemb = 93mm
!        Z_shift = 0.029m
!        Zcp2 = 29mm
!        ampl1 = 0W
!        ampl2 = 1000000W
!        ampl3 = 1000000W
!        dphi2 = 0deg
!        dphi3 = 0deg
!        ds = 10mm
!        ell = 1.396
!        squ = 0
!        tri = 0.2411
!
!Data is not renormalized
# GHz S MA R 46.630338
! Terminal data exported
! Port[1] = 1
! Port[2] = 2
! Port[3] = 3
! Port[4] = 4
0.055                          0.984892356856763 116.506662305208 0.0177138467360288 43.0940717920443 0.00775284636573108 55.707557706561  0.00252216119769123 -116.364548357093 
                               0.0158939023043773 48.2256596524714 0.980112270191547 116.32916548925  0.00107283885768226 -36.6728701051699 0.00848474803630995 59.9184404871295 
                               0.00806151982336318 79.3423322772964 0.00170499750533322 -55.2279430481763 0.982747616269911 116.115192836112 0.0129001914422897 54.101420558475  
                               0.00222655187938743 -90.20747157809  0.00974929153335826 78.2183531173372 0.0135120709530646 57.471108443379  0.984930324208471 116.380605354476 
! Gamma         0                1.15271476207352 0                1.15271476207347 0                1.15271476207342 0                1.15271476207336 
! Port Impedance         46.6303376036999 0                46.6306345718637 0                46.6201323157085 0                46.6304588044953 0                
