! Touchstone file exported from HFSS 2021.1.0
!        File:           C:/Users/Vins/Desktop/ATT-IV - WEST TWA/ANSYS/Q2 bumpers/IC_2s_FS_bmp_prof.aedt
!        Generated:      4:37:51  sept. 10, 2021
!        Design:         No_fillet
!        Project:        IC_2s_FS_bmp_prof
!        Setup:          Setup1
!        Solution:       LastAdaptive
!
! Variables:
!        b_h = 285.5mm
!        b_h1 = 143.5mm
!        b_t = 202mm
!        b_w = 206mm
!        b_wt = 30mm
!        bcv_ft = 96.1mm
!        bd_d = 1500mm
!        bd_df = 43.1mm
!        bmp_extd = 100mm
!        bmp_h = 1000mm
!        bw_db = 200mm
!        c_d = 100mm
!        c_l = 116.1mm
!        c_l2 = 100mm
!        conduct = 1e+15
!        cx_l = 100mm
!        cx_ri = 51mm
!        cx_ro = 111mm
!        diel_d = 100mm
!        fs_hfst = 30mm
!        fs_int = 19.65mm
!        fs_t = 10mm
!        l_CS = 10mm
!        s_b = 150mm
!        s_dw = 200mm
!        s_id = 180mm
!        s_l = 258.5mm
!        s_r = 37mm
!        s_stsg = 50mm
!        s_t = 15mm
!        s_w = 130mm
!        sp_t = 15mm
!        t_h = 185mm
!        vb_y = 1734.5mm
!        vb_z = 1814mm
!        xline = -310mm
!        xline2 = -45mm
!
# GHz S MA R 50.000000
! Terminal data exported
! Port[1] = 1
! Port[2] = 2
! Port[3] = 3
! Port[4] = 4
0.055                          0.979040679065023 110.453058032903 0.0108325639036634 43.5201639784182 0.00649444545072112 58.8043542838789 0.00142336675553018 -129.355538052174 
                               0.0108325639036635 43.5201639784181 0.979250421305968 110.447413486825 0.000490157863419945 68.0112180347057 0.00649112074800509 58.8482612238731 
                               0.00649444545072105 58.8043542838796 0.000490157863419929 68.011218034701  0.979244943721322 110.447193627216 0.0108388279380891 43.4861421855366 
                               0.0014233667555302 -129.355538052173 0.00649112074800492 58.8482612238736 0.0108388279380891 43.4861421855367 0.979052035857502 110.457090002774 
! Gamma         6.47655337785627E-05 1.15277953124571 6.48870962683335E-05 1.1527796575795  6.48847504409876E-05 1.15277965344178 6.47435252920006E-05 1.15277950922609 
! Port Impedance         50               0                50               0                50               0                50               0                
