! Touchstone file exported from Circuit Design 2022.2.0
!        File:           C:/Users/JH218595/Documents/Modeling/WEST ICRH/WEST_ICRH_Capacitor.aedt
!        Generated:      10:32:35  mars 24, 2024
!        Design:         WEST_capacitor_test_connection_HFSS
!        Project:        WEST_ICRH_Capacitor
!        Setup:          LinearFrequency
!        Solution:       LinearFrequency
!
! Variables:
!        C = 50pF
!        C1 = 25.7pF
!        L = 2.99e-08H
!        L1 = 2.4e-09H
!        R0 = 0.01ohm
!        R1 = 0.01ohm
!
!Data is not renormalized
# GHz S MA
! Terminal data exported
! Port[1] = Port1
0.03                           0.999448619705587 140.115034768574 
! Gamma         0                0                
! Port Impedance         5.71440540166337 0                
0.03001                        0.999448520725695 140.10128555975  
! Gamma         0                0                
! Port Impedance         5.71440540166319 0                
0.03002                        0.999448421740797 140.0875356947   
! Gamma         0                0                
! Port Impedance         5.71440540166301 0                
0.03003                        0.999448322750815 140.073785172719 
! Gamma         0                0                
! Port Impedance         5.71440540166283 0                
0.03004                        0.999448223755711 140.060033993103 
! Gamma         0                0                
! Port Impedance         5.71440540166266 0                
0.03005                        0.999448124755442 140.046282155147 
! Gamma         0                0                
! Port Impedance         5.71440540166249 0                
0.03006                        0.999448025749955 140.032529658145 
! Gamma         0                0                
! Port Impedance         5.71440540166232 0                
0.03007                        0.999447926739199 140.018776501389 
! Gamma         0                0                
! Port Impedance         5.71440540166215 0                
0.03008                        0.999447827723117 140.00502268417  
! Gamma         0                0                
! Port Impedance         5.71440540166199 0                
0.03009                        0.99944772870168 139.99126820578  
! Gamma         0                0                
! Port Impedance         5.71440540166183 0                
0.0301                         0.999447629674821 139.977513065507 
! Gamma         0                0                
! Port Impedance         5.71440540166167 0                
0.03011                        0.999447530642505 139.963757262641 
! Gamma         0                0                
! Port Impedance         5.71440540166151 0                
0.03012                        0.999447431604668 139.950000796468 
! Gamma         0                0                
! Port Impedance         5.71440540166135 0                
0.03013                        0.999447332561263 139.936243666275 
! Gamma         0                0                
! Port Impedance         5.7144054016612  0                
0.03014                        0.999447233512252 139.922485871347 
! Gamma         0                0                
! Port Impedance         5.71440540166104 0                
0.03015                        0.999447134457579 139.908727410969 
! Gamma         0                0                
! Port Impedance         5.71440540166089 0                
0.03016                        0.999447035397191 139.894968284423 
! Gamma         0                0                
! Port Impedance         5.71440540166074 0                
0.03017                        0.99944693633104 139.881208490993 
! Gamma         0                0                
! Port Impedance         5.7144054016606  0                
0.03018                        0.999446837259079 139.867448029958 
! Gamma         0                0                
! Port Impedance         5.71440540166045 0                
0.03019                        0.999446738181257 139.8536869006   
! Gamma         0                0                
! Port Impedance         5.71440540166031 0                
0.0302                         0.999446639097524 139.839925102196 
! Gamma         0                0                
! Port Impedance         5.71440540166017 0                
0.03021                        0.999446540007817 139.826162634026 
! Gamma         0                0                
! Port Impedance         5.71440540166003 0                
0.03022                        0.999446440912112 139.812399495366 
! Gamma         0                0                
! Port Impedance         5.71440540165989 0                
0.03023                        0.999446341810338 139.798635685491 
! Gamma         0                0                
! Port Impedance         5.71440540165975 0                
0.03024                        0.999446242702447 139.784871203677 
! Gamma         0                0                
! Port Impedance         5.71440540165962 0                
0.03025                        0.9994461435884  139.771106049198 
! Gamma         0                0                
! Port Impedance         5.71440540165948 0                
0.03026                        0.99944604446814 139.757340221325 
! Gamma         0                0                
! Port Impedance         5.71440540165935 0                
0.03027                        0.999445945341607 139.74357371933  
! Gamma         0                0                
! Port Impedance         5.71440540165922 0                
0.03028                        0.999445846208763 139.729806542485 
! Gamma         0                0                
! Port Impedance         5.71440540165909 0                
0.03029                        0.999445747069553 139.716038690058 
! Gamma         0                0                
! Port Impedance         5.71440540165896 0                
0.0303                         0.999445647923925 139.702270161317 
! Gamma         0                0                
! Port Impedance         5.71440540165884 0                
0.03031                        0.99944554877183 139.68850095553  
! Gamma         0                0                
! Port Impedance         5.71440540165871 0                
0.03032                        0.999445449613219 139.674731071964 
! Gamma         0                0                
! Port Impedance         5.71440540165859 0                
0.03033                        0.999445350448032 139.660960509882 
! Gamma         0                0                
! Port Impedance         5.71440540165847 0                
0.03034                        0.99944525127623 139.64718926855  
! Gamma         0                0                
! Port Impedance         5.71440540165835 0                
0.03035                        0.999445152097754 139.633417347229 
! Gamma         0                0                
! Port Impedance         5.71440540165823 0                
0.03036                        0.999445052912552 139.619644745183 
! Gamma         0                0                
! Port Impedance         5.71440540165811 0                
0.03037                        0.99944495372058 139.605871461671 
! Gamma         0                0                
! Port Impedance         5.71440540165799 0                
0.03038                        0.999444854521782 139.592097495953 
! Gamma         0                0                
! Port Impedance         5.71440540165788 0                
0.03039                        0.999444755316098 139.578322847288 
! Gamma         0                0                
! Port Impedance         5.71440540165776 0                
0.0304                         0.99944465610349 139.564547514933 
! Gamma         0                0                
! Port Impedance         5.71440540165765 0                
0.03041                        0.999444556883895 139.550771498144 
! Gamma         0                0                
! Port Impedance         5.71440540165754 0                
0.03042                        0.99944445765727 139.536994796177 
! Gamma         0                0                
! Port Impedance         5.71440540165743 0                
0.03043                        0.999444358423553 139.523217408286 
! Gamma         0                0                
! Port Impedance         5.71440540165732 0                
0.03044                        0.999444259182706 139.509439333723 
! Gamma         0                0                
! Port Impedance         5.71440540165721 0                
0.03045                        0.999444159934668 139.495660571741 
! Gamma         0                0                
! Port Impedance         5.7144054016571  0                
0.03046                        0.999444060679386 139.481881121591 
! Gamma         0                0                
! Port Impedance         5.714405401657   0                
0.03047                        0.999443961416806 139.468100982521 
! Gamma         0                0                
! Port Impedance         5.71440540165689 0                
0.03048                        0.999443862146885 139.454320153782 
! Gamma         0                0                
! Port Impedance         5.71440540165679 0                
0.03049                        0.999443762869558 139.440538634619 
! Gamma         0                0                
! Port Impedance         5.71440540165668 0                
0.0305                         0.999443663584784 139.426756424279 
! Gamma         0                0                
! Port Impedance         5.71440540165658 0                
0.03051                        0.999443564292507 139.412973522008 
! Gamma         0                0                
! Port Impedance         5.71440540165648 0                
0.03052                        0.999443464992676 139.399189927049 
! Gamma         0                0                
! Port Impedance         5.71440540165638 0                
0.03053                        0.999443365685229 139.385405638646 
! Gamma         0                0                
! Port Impedance         5.71440540165628 0                
0.03054                        0.99944326637011 139.37162065604  
! Gamma         0                0                
! Port Impedance         5.71440540165619 0                
0.03055                        0.999443167047288 139.357834978472 
! Gamma         0                0                
! Port Impedance         5.71440540165609 0                
0.03056                        0.999443067716692 139.344048605181 
! Gamma         0                0                
! Port Impedance         5.71440540165599 0                
0.03057                        0.999442968378275 139.330261535406 
! Gamma         0                0                
! Port Impedance         5.7144054016559  0                
0.03058                        0.999442869031985 139.316473768384 
! Gamma         0                0                
! Port Impedance         5.7144054016558  0                
0.03059                        0.999442769677763 139.302685303351 
! Gamma         0                0                
! Port Impedance         5.71440540165571 0                
0.0306                         0.999442670315553 139.288896139542 
! Gamma         0                0                
! Port Impedance         5.71440540165562 0                
0.03061                        0.999442570945315 139.27510627619  
! Gamma         0                0                
! Port Impedance         5.71440540165553 0                
0.03062                        0.999442471566985 139.261315712529 
! Gamma         0                0                
! Port Impedance         5.71440540165544 0                
0.03063                        0.999442372180507 139.24752444779  
! Gamma         0                0                
! Port Impedance         5.71440540165535 0                
0.03064                        0.999442272785827 139.233732481203 
! Gamma         0                0                
! Port Impedance         5.71440540165526 0                
0.03065                        0.999442173382904 139.219939811998 
! Gamma         0                0                
! Port Impedance         5.71440540165517 0                
0.03066                        0.999442073971673 139.206146439402 
! Gamma         0                0                
! Port Impedance         5.71440540165508 0                
0.03067                        0.999441974552086 139.192352362642 
! Gamma         0                0                
! Port Impedance         5.714405401655   0                
0.03068                        0.999441875124087 139.178557580944 
! Gamma         0                0                
! Port Impedance         5.71440540165491 0                
0.03069                        0.999441775687607 139.164762093533 
! Gamma         0                0                
! Port Impedance         5.71440540165483 0                
0.0307                         0.999441676242617 139.150965899631 
! Gamma         0                0                
! Port Impedance         5.71440540165474 0                
0.03071                        0.999441576789039 139.137168998461 
! Gamma         0                0                
! Port Impedance         5.71440540165466 0                
0.03072                        0.999441477326835 139.123371389244 
! Gamma         0                0                
! Port Impedance         5.71440540165458 0                
0.03073                        0.999441377855946 139.1095730712   
! Gamma         0                0                
! Port Impedance         5.7144054016545  0                
0.03074                        0.99944127837632 139.095774043548 
! Gamma         0                0                
! Port Impedance         5.71440540165442 0                
0.03075                        0.999441178887887 139.081974305504 
! Gamma         0                0                
! Port Impedance         5.71440540165434 0                
0.03076                        0.999441079390609 139.068173856286 
! Gamma         0                0                
! Port Impedance         5.71440540165426 0                
0.03077                        0.999440979884424 139.054372695107 
! Gamma         0                0                
! Port Impedance         5.71440540165418 0                
0.03078                        0.999440880369282 139.040570821183 
! Gamma         0                0                
! Port Impedance         5.7144054016541  0                
0.03079                        0.999440780845117 139.026768233726 
! Gamma         0                0                
! Port Impedance         5.71440540165402 0                
0.0308                         0.999440681311884 139.012964931947 
! Gamma         0                0                
! Port Impedance         5.71440540165395 0                
0.03081                        0.999440581769514 138.999160915057 
! Gamma         0                0                
! Port Impedance         5.71440540165387 0                
0.03082                        0.999440482217973 138.985356182265 
! Gamma         0                0                
! Port Impedance         5.7144054016538  0                
0.03083                        0.999440382657185 138.971550732779 
! Gamma         0                0                
! Port Impedance         5.71440540165372 0                
0.03084                        0.999440283087112 138.957744565805 
! Gamma         0                0                
! Port Impedance         5.71440540165365 0                
0.03085                        0.999440183507677 138.943937680549 
! Gamma         0                0                
! Port Impedance         5.71440540165357 0                
0.03086                        0.999440083918847 138.930130076215 
! Gamma         0                0                
! Port Impedance         5.7144054016535  0                
0.03087                        0.999439984320553 138.916321752006 
! Gamma         0                0                
! Port Impedance         5.71440540165343 0                
0.03088                        0.999439884712731 138.902512707125 
! Gamma         0                0                
! Port Impedance         5.71440540165336 0                
0.03089                        0.99943978509534 138.888702940772 
! Gamma         0                0                
! Port Impedance         5.71440540165329 0                
0.0309                         0.999439685468313 138.874892452146 
! Gamma         0                0                
! Port Impedance         5.71440540165322 0                
0.03091                        0.999439585831607 138.861081240446 
! Gamma         0                0                
! Port Impedance         5.71440540165315 0                
0.03092                        0.99943948618515 138.847269304868 
! Gamma         0                0                
! Port Impedance         5.71440540165308 0                
0.03093                        0.999439386528901 138.833456644608 
! Gamma         0                0                
! Port Impedance         5.71440540165301 0                
0.03094                        0.999439286862791 138.819643258862 
! Gamma         0                0                
! Port Impedance         5.71440540165294 0                
0.03095                        0.999439187186759 138.805829146821 
! Gamma         0                0                
! Port Impedance         5.71440540165287 0                
0.03096                        0.999439087500763 138.792014307679 
! Gamma         0                0                
! Port Impedance         5.71440540165281 0                
0.03097                        0.999438987804744 138.778198740626 
! Gamma         0                0                
! Port Impedance         5.71440540165274 0                
0.03098                        0.999438888098629 138.764382444852 
! Gamma         0                0                
! Port Impedance         5.71440540165268 0                
0.03099                        0.999438788382378 138.750565419544 
! Gamma         0                0                
! Port Impedance         5.71440540165261 0                
0.031                          0.999438688655923 138.736747663891 
! Gamma         0                0                
! Port Impedance         5.71440540165255 0                
0.03101                        0.999438588919212 138.722929177078 
! Gamma         0                0                
! Port Impedance         5.71440540165248 0                
0.03102                        0.999438489172183 138.709109958289 
! Gamma         0                0                
! Port Impedance         5.71440540165242 0                
0.03103                        0.999438389414787 138.695290006708 
! Gamma         0                0                
! Port Impedance         5.71440540165236 0                
0.03104                        0.999438289646955 138.681469321518 
! Gamma         0                0                
! Port Impedance         5.71440540165229 0                
0.03105                        0.999438189868634 138.667647901898 
! Gamma         0                0                
! Port Impedance         5.71440540165223 0                
0.03106                        0.999438090079775 138.653825747029 
! Gamma         0                0                
! Port Impedance         5.71440540165217 0                
0.03107                        0.999437990280298 138.640002856089 
! Gamma         0                0                
! Port Impedance         5.71440540165211 0                
0.03108                        0.999437890470172 138.626179228255 
! Gamma         0                0                
! Port Impedance         5.71440540165205 0                
0.03109                        0.999437790649316 138.612354862702 
! Gamma         0                0                
! Port Impedance         5.71440540165199 0                
0.0311                         0.999437690817683 138.598529758606 
! Gamma         0                0                
! Port Impedance         5.71440540165193 0                
0.03111                        0.999437590975211 138.584703915139 
! Gamma         0                0                
! Port Impedance         5.71440540165187 0                
0.03112                        0.999437491121848 138.570877331474 
! Gamma         0                0                
! Port Impedance         5.71440540165181 0                
0.03113                        0.999437391257527 138.557050006782 
! Gamma         0                0                
! Port Impedance         5.71440540165175 0                
0.03114                        0.999437291382186 138.54322194023  
! Gamma         0                0                
! Port Impedance         5.7144054016517  0                
0.03115                        0.999437191495787 138.529393130989 
! Gamma         0                0                
! Port Impedance         5.71440540165164 0                
0.03116                        0.999437091598246 138.515563578225 
! Gamma         0                0                
! Port Impedance         5.71440540165158 0                
0.03117                        0.999436991689508 138.501733281102 
! Gamma         0                0                
! Port Impedance         5.71440540165153 0                
0.03118                        0.99943689176953 138.487902238787 
! Gamma         0                0                
! Port Impedance         5.71440540165147 0                
0.03119                        0.999436791838242 138.474070450441 
! Gamma         0                0                
! Port Impedance         5.71440540165141 0                
0.0312                         0.999436691895576 138.460237915227 
! Gamma         0                0                
! Port Impedance         5.71440540165136 0                
0.03121                        0.999436591941491 138.446404632304 
! Gamma         0                0                
! Port Impedance         5.7144054016513  0                
0.03122                        0.999436491975916 138.432570600833 
! Gamma         0                0                
! Port Impedance         5.71440540165125 0                
0.03123                        0.999436391998783 138.418735819972 
! Gamma         0                0                
! Port Impedance         5.7144054016512  0                
0.03124                        0.999436292010049 138.404900288876 
! Gamma         0                0                
! Port Impedance         5.71440540165114 0                
0.03125                        0.999436192009646 138.391064006702 
! Gamma         0                0                
! Port Impedance         5.71440540165109 0                
0.03126                        0.999436091997524 138.377226972604 
! Gamma         0                0                
! Port Impedance         5.71440540165104 0                
0.03127                        0.999435991973602 138.363389185735 
! Gamma         0                0                
! Port Impedance         5.71440540165098 0                
0.03128                        0.999435891937837 138.349550645249 
! Gamma         0                0                
! Port Impedance         5.71440540165093 0                
0.03129                        0.999435791890157 138.335711350298 
! Gamma         0                0                
! Port Impedance         5.71440540165088 0                
0.0313                         0.999435691830509 138.321871300036 
! Gamma         0                0                
! Port Impedance         5.71440540165083 0                
0.03131                        0.99943559175884 138.308030493618 
! Gamma         0                0                
! Port Impedance         5.71440540165078 0                
0.03132                        0.99943549167507 138.294188930212 
! Gamma         0                0                
! Port Impedance         5.71440540165073 0                
0.03133                        0.999435391579146 138.280346609027 
! Gamma         0                0                
! Port Impedance         5.71440540165068 0                
0.03134                        0.999435291471016 138.266503529501 
! Gamma         0                0                
! Port Impedance         5.71440540165063 0                
0.03135                        0.999435191350598 138.252659705308 
! Gamma         0                0                
! Port Impedance         5.71440540165058 0                
0.03136                        0.999435091217867 138.238815086718 
! Gamma         0                0                
! Port Impedance         5.71440540165053 0                
0.03137                        0.999434991072734 138.224969725982 
! Gamma         0                0                
! Port Impedance         5.71440540165048 0                
0.03138                        0.999434890915134 138.211123602516 
! Gamma         0                0                
! Port Impedance         5.71440540165043 0                
0.03139                        0.999434790745017 138.197276715873 
! Gamma         0                0                
! Port Impedance         5.71440540165039 0                
0.0314                         0.999434690562318 138.183429065268 
! Gamma         0                0                
! Port Impedance         5.71440540165034 0                
0.03141                        0.99943459036698 138.16958064986  
! Gamma         0                0                
! Port Impedance         5.71440540165029 0                
0.03142                        0.999434490158927 138.15573146879  
! Gamma         0                0                
! Port Impedance         5.71440540165024 0                
0.03143                        0.999434389938117 138.141881521197 
! Gamma         0                0                
! Port Impedance         5.7144054016502  0                
0.03144                        0.999434289704467 138.128030806212 
! Gamma         0                0                
! Port Impedance         5.71440540165015 0                
0.03145                        0.999434189457935 138.114179322966 
! Gamma         0                0                
! Port Impedance         5.71440540165011 0                
0.03146                        0.999434089198445 138.100327070586 
! Gamma         0                0                
! Port Impedance         5.71440540165006 0                
0.03147                        0.999433988925941 138.086474048199 
! Gamma         0                0                
! Port Impedance         5.71440540165001 0                
0.03148                        0.999433888640356 138.072620254929 
! Gamma         0                0                
! Port Impedance         5.71440540164997 0                
0.03149                        0.999433788341629 138.0587656899   
! Gamma         0                0                
! Port Impedance         5.71440540164993 0                
0.0315                         0.999433688029694 138.044910352234 
! Gamma         0                0                
! Port Impedance         5.71440540164988 0                
0.03151                        0.999433587704498 138.03105424105  
! Gamma         0                0                
! Port Impedance         5.71440540164984 0                
0.03152                        0.999433487365976 138.017197355467 
! Gamma         0                0                
! Port Impedance         5.71440540164979 0                
0.03153                        0.999433387014052 138.003339694603 
! Gamma         0                0                
! Port Impedance         5.71440540164975 0                
0.03154                        0.999433286648672 137.989481257574 
! Gamma         0                0                
! Port Impedance         5.71440540164971 0                
0.03155                        0.999433186269767 137.975622043494 
! Gamma         0                0                
! Port Impedance         5.71440540164966 0                
0.03156                        0.999433085877284 137.961762051477 
! Gamma         0                0                
! Port Impedance         5.71440540164962 0                
0.03157                        0.999432985471148 137.947901280634 
! Gamma         0                0                
! Port Impedance         5.71440540164958 0                
0.03158                        0.999432885051307 137.934039730075 
! Gamma         0                0                
! Port Impedance         5.71440540164954 0                
0.03159                        0.999432784617683 137.920177398909 
! Gamma         0                0                
! Port Impedance         5.71440540164949 0                
0.0316                         0.999432684170219 137.906314286244 
! Gamma         0                0                
! Port Impedance         5.71440540164945 0                
0.03161                        0.99943258370886 137.892450391186 
! Gamma         0                0                
! Port Impedance         5.71440540164941 0                
0.03162                        0.999432483233525 137.87858571284  
! Gamma         0                0                
! Port Impedance         5.71440540164937 0                
0.03163                        0.99943238274416 137.864720250308 
! Gamma         0                0                
! Port Impedance         5.71440540164933 0                
0.03164                        0.999432282240705 137.850854002692 
! Gamma         0                0                
! Port Impedance         5.71440540164929 0                