! Touchstone file exported from Circuit Design 2022.2.0
!        File:           C:/Users/JH218595/Documents/Modeling/WEST ICRH/WEST_ICRH_Capacitor.aedt
!        Generated:      10:32:41  mars 24, 2024
!        Design:         WEST_capacitor_test_connection_HFSS
!        Project:        WEST_ICRH_Capacitor
!        Setup:          LinearFrequency
!        Solution:       LinearFrequency
!
! Variables:
!        C = 50pF
!        C1 = 25.7pF
!        L = 2.99e-08H
!        L1 = 2.4e-09H
!        R0 = 0.01ohm
!        R1 = 0.01ohm
!
# GHz S MA R 50.000000
! Terminal data exported
! Port[1] = Port1
0.03                           0.999928793127809 175.250885736394 
! Gamma         0                0                
! Port Impedance         50               0                
0.03001                        0.99992877423149 175.249110473621 
! Gamma         0                0                
! Port Impedance         50               0                
0.03002                        0.999928755329233 175.247334973755 
! Gamma         0                0                
! Port Impedance         50               0                
0.03003                        0.999928736421025 175.245559236612 
! Gamma         0                0                
! Port Impedance         50               0                
0.03004                        0.999928717506858 175.24378326201  
! Gamma         0                0                
! Port Impedance         50               0                
0.03005                        0.999928698586723 175.242007049767 
! Gamma         0                0                
! Port Impedance         50               0                
0.03006                        0.99992867966061 175.240230599698 
! Gamma         0                0                
! Port Impedance         50               0                
0.03007                        0.999928660728508 175.238453911621 
! Gamma         0                0                
! Port Impedance         50               0                
0.03008                        0.999928641790407 175.236676985352 
! Gamma         0                0                
! Port Impedance         50               0                
0.03009                        0.9999286228463  175.234899820707 
! Gamma         0                0                
! Port Impedance         50               0                
0.0301                         0.999928603896174 175.233122417502 
! Gamma         0                0                
! Port Impedance         50               0                
0.03011                        0.999928584940023 175.231344775553 
! Gamma         0                0                
! Port Impedance         50               0                
0.03012                        0.999928565977833 175.229566894676 
! Gamma         0                0                
! Port Impedance         50               0                
0.03013                        0.999928547009596 175.227788774686 
! Gamma         0                0                
! Port Impedance         50               0                
0.03014                        0.999928528035303 175.226010415398 
! Gamma         0                0                
! Port Impedance         50               0                
0.03015                        0.999928509054943 175.224231816627 
! Gamma         0                0                
! Port Impedance         50               0                
0.03016                        0.999928490068507 175.222452978188 
! Gamma         0                0                
! Port Impedance         50               0                
0.03017                        0.999928471075984 175.220673899896 
! Gamma         0                0                
! Port Impedance         50               0                
0.03018                        0.999928452077366 175.218894581564 
! Gamma         0                0                
! Port Impedance         50               0                
0.03019                        0.999928433072642 175.217115023007 
! Gamma         0                0                
! Port Impedance         50               0                
0.0302                         0.999928414061801 175.215335224039 
! Gamma         0                0                
! Port Impedance         50               0                
0.03021                        0.999928395044834 175.213555184473 
! Gamma         0                0                
! Port Impedance         50               0                
0.03022                        0.999928376021732 175.211774904124 
! Gamma         0                0                
! Port Impedance         50               0                
0.03023                        0.999928356992483 175.209994382804 
! Gamma         0                0                
! Port Impedance         50               0                
0.03024                        0.999928337957078 175.208213620326 
! Gamma         0                0                
! Port Impedance         50               0                
0.03025                        0.999928318915508 175.206432616504 
! Gamma         0                0                
! Port Impedance         50               0                
0.03026                        0.999928299867763 175.204651371149 
! Gamma         0                0                
! Port Impedance         50               0                
0.03027                        0.99992828081383 175.202869884074 
! Gamma         0                0                
! Port Impedance         50               0                
0.03028                        0.999928261753702 175.201088155093 
! Gamma         0                0                
! Port Impedance         50               0                
0.03029                        0.999928242687368 175.199306184015 
! Gamma         0                0                
! Port Impedance         50               0                
0.0303                         0.999928223614817 175.197523970654 
! Gamma         0                0                
! Port Impedance         50               0                
0.03031                        0.999928204536041 175.195741514821 
! Gamma         0                0                
! Port Impedance         50               0                
0.03032                        0.999928185451028 175.193958816327 
! Gamma         0                0                
! Port Impedance         50               0                
0.03033                        0.999928166359768 175.192175874984 
! Gamma         0                0                
! Port Impedance         50               0                
0.03034                        0.999928147262252 175.190392690601 
! Gamma         0                0                
! Port Impedance         50               0                
0.03035                        0.999928128158469 175.188609262991 
! Gamma         0                0                
! Port Impedance         50               0                
0.03036                        0.999928109048409 175.186825591963 
! Gamma         0                0                
! Port Impedance         50               0                
0.03037                        0.999928089932062 175.185041677328 
! Gamma         0                0                
! Port Impedance         50               0                
0.03038                        0.999928070809418 175.183257518896 
! Gamma         0                0                
! Port Impedance         50               0                
0.03039                        0.999928051680466 175.181473116476 
! Gamma         0                0                
! Port Impedance         50               0                
0.0304                         0.999928032545196 175.179688469878 
! Gamma         0                0                
! Port Impedance         50               0                
0.03041                        0.999928013403597 175.177903578912 
! Gamma         0                0                
! Port Impedance         50               0                
0.03042                        0.99992799425566 175.176118443387 
! Gamma         0                0                
! Port Impedance         50               0                
0.03043                        0.999927975101374 175.174333063111 
! Gamma         0                0                
! Port Impedance         50               0                
0.03044                        0.99992795594073 175.172547437894 
! Gamma         0                0                
! Port Impedance         50               0                
0.03045                        0.999927936773716 175.170761567544 
! Gamma         0                0                
! Port Impedance         50               0                
0.03046                        0.999927917600322 175.168975451869 
! Gamma         0                0                
! Port Impedance         50               0                
0.03047                        0.999927898420537 175.167189090678 
! Gamma         0                0                
! Port Impedance         50               0                
0.03048                        0.999927879234353 175.165402483777 
! Gamma         0                0                
! Port Impedance         50               0                
0.03049                        0.999927860041757 175.163615630975 
! Gamma         0                0                
! Port Impedance         50               0                
0.0305                         0.99992784084274 175.16182853208  
! Gamma         0                0                
! Port Impedance         50               0                
0.03051                        0.999927821637291 175.160041186897 
! Gamma         0                0                
! Port Impedance         50               0                
0.03052                        0.9999278024254  175.158253595235 
! Gamma         0                0                
! Port Impedance         50               0                
0.03053                        0.999927783207057 175.1564657569   
! Gamma         0                0                
! Port Impedance         50               0                
0.03054                        0.999927763982248 175.154677671698 
! Gamma         0                0                
! Port Impedance         50               0                
0.03055                        0.999927744750968 175.152889339436 
! Gamma         0                0                
! Port Impedance         50               0                
0.03056                        0.999927725513203 175.15110075992  
! Gamma         0                0                
! Port Impedance         50               0                
0.03057                        0.999927706268943 175.149311932955 
! Gamma         0                0                
! Port Impedance         50               0                
0.03058                        0.999927687018178 175.147522858348 
! Gamma         0                0                
! Port Impedance         50               0                
0.03059                        0.999927667760897 175.145733535902 
! Gamma         0                0                
! Port Impedance         50               0                
0.0306                         0.999927648497088 175.143943965425 
! Gamma         0                0                
! Port Impedance         50               0                
0.03061                        0.999927629226744 175.14215414672  
! Gamma         0                0                
! Port Impedance         50               0                
0.03062                        0.999927609949851 175.140364079592 
! Gamma         0                0                
! Port Impedance         50               0                
0.03063                        0.999927590666399 175.138573763846 
! Gamma         0                0                
! Port Impedance         50               0                
0.03064                        0.999927571376378 175.136783199286 
! Gamma         0                0                
! Port Impedance         50               0                
0.03065                        0.999927552079778 175.134992385716 
! Gamma         0                0                
! Port Impedance         50               0                
0.03066                        0.999927532776587 175.133201322939 
! Gamma         0                0                
! Port Impedance         50               0                
0.03067                        0.999927513466795 175.13141001076  
! Gamma         0                0                
! Port Impedance         50               0                
0.03068                        0.999927494150391 175.129618448981 
! Gamma         0                0                
! Port Impedance         50               0                
0.03069                        0.999927474827364 175.127826637405 
! Gamma         0                0                
! Port Impedance         50               0                
0.0307                         0.999927455497704 175.126034575836 
! Gamma         0                0                
! Port Impedance         50               0                
0.03071                        0.999927436161398 175.124242264075 
! Gamma         0                0                
! Port Impedance         50               0                
0.03072                        0.999927416818438 175.122449701926 
! Gamma         0                0                
! Port Impedance         50               0                
0.03073                        0.999927397468813 175.12065688919  
! Gamma         0                0                
! Port Impedance         50               0                
0.03074                        0.999927378112511 175.11886382567  
! Gamma         0                0                
! Port Impedance         50               0                
0.03075                        0.99992735874952 175.117070511166 
! Gamma         0                0                
! Port Impedance         50               0                
0.03076                        0.999927339379831 175.115276945481 
! Gamma         0                0                
! Port Impedance         50               0                
0.03077                        0.999927320003433 175.113483128415 
! Gamma         0                0                
! Port Impedance         50               0                
0.03078                        0.999927300620314 175.11168905977  
! Gamma         0                0                
! Port Impedance         50               0                
0.03079                        0.999927281230464 175.109894739346 
! Gamma         0                0                
! Port Impedance         50               0                
0.0308                         0.999927261833872 175.108100166944 
! Gamma         0                0                
! Port Impedance         50               0                
0.03081                        0.999927242430525 175.106305342364 
! Gamma         0                0                
! Port Impedance         50               0                
0.03082                        0.999927223020415 175.104510265406 
! Gamma         0                0                
! Port Impedance         50               0                
0.03083                        0.999927203603529 175.102714935869 
! Gamma         0                0                
! Port Impedance         50               0                
0.03084                        0.999927184179858 175.100919353553 
! Gamma         0                0                
! Port Impedance         50               0                
0.03085                        0.999927164749388 175.099123518259 
! Gamma         0                0                
! Port Impedance         50               0                
0.03086                        0.999927145312111 175.097327429783 
! Gamma         0                0                
! Port Impedance         50               0                
0.03087                        0.999927125868015 175.095531087926 
! Gamma         0                0                
! Port Impedance         50               0                
0.03088                        0.999927106417086 175.093734492486 
! Gamma         0                0                
! Port Impedance         50               0                
0.03089                        0.999927086959316 175.091937643261 
! Gamma         0                0                
! Port Impedance         50               0                
0.0309                         0.999927067494693 175.09014054005  
! Gamma         0                0                
! Port Impedance         50               0                
0.03091                        0.999927048023206 175.088343182649 
! Gamma         0                0                
! Port Impedance         50               0                
0.03092                        0.999927028544843 175.086545570858 
! Gamma         0                0                
! Port Impedance         50               0                
0.03093                        0.999927009059596 175.084747704472 
! Gamma         0                0                
! Port Impedance         50               0                
0.03094                        0.999926989567449 175.08294958329  
! Gamma         0                0                
! Port Impedance         50               0                
0.03095                        0.999926970068393 175.081151207108 
! Gamma         0                0                
! Port Impedance         50               0                
0.03096                        0.999926950562417 175.079352575723 
! Gamma         0                0                
! Port Impedance         50               0                
0.03097                        0.99992693104951 175.077553688931 
! Gamma         0                0                
! Port Impedance         50               0                
0.03098                        0.999926911529659 175.075754546528 
! Gamma         0                0                
! Port Impedance         50               0                
0.03099                        0.999926892002855 175.07395514831  
! Gamma         0                0                
! Port Impedance         50               0                
0.031                          0.999926872469085 175.072155494073 
! Gamma         0                0                
! Port Impedance         50               0                
0.03101                        0.999926852928338 175.070355583612 
! Gamma         0                0                
! Port Impedance         50               0                
0.03102                        0.999926833380602 175.068555416722 
! Gamma         0                0                
! Port Impedance         50               0                
0.03103                        0.999926813825868 175.066754993198 
! Gamma         0                0                
! Port Impedance         50               0                
0.03104                        0.999926794264121 175.064954312836 
! Gamma         0                0                
! Port Impedance         50               0                
0.03105                        0.999926774695352 175.063153375428 
! Gamma         0                0                
! Port Impedance         50               0                
0.03106                        0.99992675511955 175.06135218077  
! Gamma         0                0                
! Port Impedance         50               0                
0.03107                        0.999926735536701 175.059550728656 
! Gamma         0                0                
! Port Impedance         50               0                
0.03108                        0.999926715946796 175.057749018878 
! Gamma         0                0                
! Port Impedance         50               0                
0.03109                        0.999926696349821 175.055947051231 
! Gamma         0                0                
! Port Impedance         50               0                
0.0311                         0.999926676745767 175.054144825507 
! Gamma         0                0                
! Port Impedance         50               0                
0.03111                        0.999926657134621 175.052342341499 
! Gamma         0                0                
! Port Impedance         50               0                
0.03112                        0.999926637516372 175.050539599001 
! Gamma         0                0                
! Port Impedance         50               0                
0.03113                        0.999926617891008 175.048736597804 
! Gamma         0                0                
! Port Impedance         50               0                
0.03114                        0.999926598258517 175.046933337701 
! Gamma         0                0                
! Port Impedance         50               0                
0.03115                        0.99992657861889 175.045129818483 
! Gamma         0                0                
! Port Impedance         50               0                
0.03116                        0.999926558972111 175.043326039942 
! Gamma         0                0                
! Port Impedance         50               0                
0.03117                        0.999926539318171 175.041522001869 
! Gamma         0                0                
! Port Impedance         50               0                
0.03118                        0.999926519657058 175.039717704057 
! Gamma         0                0                
! Port Impedance         50               0                
0.03119                        0.99992649998876 175.037913146295 
! Gamma         0                0                
! Port Impedance         50               0                
0.0312                         0.999926480313265 175.036108328373 
! Gamma         0                0                
! Port Impedance         50               0                
0.03121                        0.999926460630562 175.034303250084 
! Gamma         0                0                
! Port Impedance         50               0                
0.03122                        0.999926440940639 175.032497911216 
! Gamma         0                0                
! Port Impedance         50               0                
0.03123                        0.999926421243482 175.030692311559 
! Gamma         0                0                
! Port Impedance         50               0                
0.03124                        0.999926401539082 175.028886450904 
! Gamma         0                0                
! Port Impedance         50               0                
0.03125                        0.999926381827427 175.027080329039 
! Gamma         0                0                
! Port Impedance         50               0                
0.03126                        0.999926362108504 175.025273945754 
! Gamma         0                0                
! Port Impedance         50               0                
0.03127                        0.999926342382302 175.023467300837 
! Gamma         0                0                
! Port Impedance         50               0                
0.03128                        0.999926322648808 175.021660394077 
! Gamma         0                0                
! Port Impedance         50               0                
0.03129                        0.99992630290801 175.019853225264 
! Gamma         0                0                
! Port Impedance         50               0                
0.0313                         0.999926283159897 175.018045794185 
! Gamma         0                0                
! Port Impedance         50               0                
0.03131                        0.999926263404458 175.016238100629 
! Gamma         0                0                
! Port Impedance         50               0                
0.03132                        0.999926243641678 175.014430144387 
! Gamma         0                0                
! Port Impedance         50               0                
0.03133                        0.999926223871547 175.012621925255 
! Gamma         0                0                
! Port Impedance         50               0                
0.03134                        0.999926204094053 175.010813443058 
! Gamma         0                0                
! Port Impedance         50               0                
0.03135                        0.999926184309189 175.009004699481 
! Gamma         0                0                
! Port Impedance         50               0                
0.03136                        0.999926164516925 175.007195687925 
! Gamma         0                0                
! Port Impedance         50               0                
0.03137                        0.999926144717268 175.005386415117 
! Gamma         0                0                
! Port Impedance         50               0                
0.03138                        0.999926124910199 175.003576878265 
! Gamma         0                0                
! Port Impedance         50               0                
0.03139                        0.999926105095706 175.001767077209 
! Gamma         0                0                
! Port Impedance         50               0                
0.0314                         0.999926085273777 174.999957011745 
! Gamma         0                0                
! Port Impedance         50               0                
0.03141                        0.9999260654444  174.998146681662 
! Gamma         0                0                
! Port Impedance         50               0                
0.03142                        0.999926045607561 174.996336086745 
! Gamma         0                0                
! Port Impedance         50               0                
0.03143                        0.999926025763251 174.99452522678  
! Gamma         0                0                
! Port Impedance         50               0                
0.03144                        0.999926005911454 174.992714101552 
! Gamma         0                0                
! Port Impedance         50               0                
0.03145                        0.99992598605216 174.990902710844 
! Gamma         0                0                
! Port Impedance         50               0                
0.03146                        0.999925966185357 174.989091054442 
! Gamma         0                0                
! Port Impedance         50               0                
0.03147                        0.999925946311032 174.987279132127 
! Gamma         0                0                
! Port Impedance         50               0                
0.03148                        0.999925926429173 174.985466943685 
! Gamma         0                0                
! Port Impedance         50               0                
0.03149                        0.999925906539766 174.983654488896 
! Gamma         0                0                
! Port Impedance         50               0                
0.0315                         0.9999258866428  174.981841767545 
! Gamma         0                0                
! Port Impedance         50               0                
0.03151                        0.999925866738263 174.980028779414 
! Gamma         0                0                
! Port Impedance         50               0                
0.03152                        0.999925846826143 174.978215524285 
! Gamma         0                0                
! Port Impedance         50               0                
0.03153                        0.999925826906425 174.976402001939 
! Gamma         0                0                
! Port Impedance         50               0                
0.03154                        0.999925806979098 174.974588212159 
! Gamma         0                0                
! Port Impedance         50               0                
0.03155                        0.999925787044149 174.972774154725 
! Gamma         0                0                
! Port Impedance         50               0                
0.03156                        0.999925767101567 174.970959829419 
! Gamma         0                0                
! Port Impedance         50               0                
0.03157                        0.999925747151338 174.969145236021 
! Gamma         0                0                
! Port Impedance         50               0                
0.03158                        0.99992572719345 174.967330374312 
! Gamma         0                0                
! Port Impedance         50               0                
0.03159                        0.99992570722789 174.965515244073 
! Gamma         0                0                
! Port Impedance         50               0                
0.0316                         0.999925687254645 174.963699845082 
! Gamma         0                0                
! Port Impedance         50               0                
0.03161                        0.999925667273704 174.96188417712  
! Gamma         0                0                
! Port Impedance         50               0                
0.03162                        0.999925647285052 174.960068239966 
! Gamma         0                0                
! Port Impedance         50               0                
0.03163                        0.999925627288678 174.958252033399 
! Gamma         0                0                
! Port Impedance         50               0                
0.03164                        0.99992560728457 174.956435557198 
! Gamma         0                0                
! Port Impedance         50               0                