! Touchstone file exported from HFSS 2020.2.0
!        File:           C:/Users/JH218595/Documents/ICRH/WEST/HFSS_antenna_elements/Bridge_ImpTrasnf_Stub.aedt
!        Generated:      5:40:53  juil. 31, 2020
!        Design:         Stub
!        Project:        Bridge_ImpTrasnf_Stub
!        Setup:          Setup1
!        Solution:       Sweep_operationnal
!
!Data is not renormalized
# GHZ S MA
! Terminal data exported
! Port[1] = 1
! Port[2] = 2
! Port[3] = 3
0.03                           0.198397503946514 165.220947845135 0.801786636230384 -11.6792998445584 0.563633952082104 -32.3599914438437 
                               0.801786636230384 -11.6792998445584 0.198155300661299 167.512355901583 0.563721492184225 -31.2127293723032 
                               0.563633952082104 -32.3599914438437 0.563721492184225 -31.2127293723032 0.603603404681834 127.463941087408 
! Gamma         8.98268064626374E-05 0.628843368316365 9.14407690462558E-05 0.628845028629481 0.000100197218856309 0.62885398172571 
! Port Impedance         29.7523804284936 -0.00408486641296779 29.7431729284048 -0.00408758809741894 60.4495367210909 -0.00873232997141314 
0.03001                        0.198397958618878 165.215989227593 0.801786238475717 -11.6831833652018 0.563634346152499 -32.3707937057188 
                               0.801786238475717 -11.6831833652018 0.198155764783806 167.50816135323  0.563721883357112 -31.2231492330417 
                               0.563634346152499 -32.3707937057189 0.563721883357111 -31.2231492330417 0.603602654960059 127.446373018933 
! Gamma         8.9841482622454E-05 0.629052968031895 9.14557163672234E-05 0.629054628626324 0.000100213628378165 0.629063583239413 
! Port Impedance         29.7523797514769 -0.00408418340973927 29.7431722509377 -0.00408690464130022 60.4495352739194 -0.00873087004903731 
0.03002                        0.198398413419755 165.21103057887  0.801785840617399 -11.6870668769963 0.563634740321978 -32.3815959828089 
                               0.801785840617399 -11.6870668769963 0.198156229037994 167.503966773898 0.563722274628107 -31.2335691089969 
                               0.563634740321978 -32.3815959828089 0.563722274628107 -31.2335691089969 0.603601905037202 127.428804895868 
! Gamma         8.98561573304747E-05 0.629262567744482 9.14706622095991E-05 0.629264228620168 0.000100230036276947 0.629273184749823 
! Port Impedance         29.7523790747862 -0.0040835007585428 29.7431715737968 -0.00408622153744656 60.4495338274449 -0.00872941087911996 
0.03003                        0.198398868349121 165.206071898955 0.801785442655456 -11.6909503799393 0.563635134590512 -32.3923982751184 
                               0.801785442655456 -11.6909503799393 0.198156693423838 167.49977216358  0.56372266599718 -31.2439890001733 
                               0.563635134590512 -32.3923982751184 0.56372266599718 -31.2439890001733 0.603601154913321 127.411236718198 
! Gamma         8.98708305857067E-05 0.629472167454125 9.14856065723717E-05 0.629473828611015 0.000100246442551545 0.629482786256942 
! Port Impedance         29.7523783984212 -0.004082818459048 29.7431708969819 -0.00408553878552735 60.4495323816667 -0.00872795246095507 
0.03004                        0.198399323406956 165.201113187841 0.801785044589919 -11.6948338740279 0.563635528958069 -32.4032005826519 
                               0.801785044589919 -11.6948338740279 0.198157157941317 167.495577522265 0.563723057464301 -31.2544089065754 
                               0.563635528958069 -32.4032005826519 0.563723057464301 -31.2544089065754 0.603600404588476 127.393668485907 
! Gamma         8.98855023871596E-05 0.629681767160825 9.15005494545324E-05 0.629683428598865 0.000100262847200852 0.629692387760771 
! Port Impedance         29.7523777223817 -0.00408213651092496 29.7431702204926 -0.0040848563852125 60.4495309365842 -0.00872649479383762 
0.03005                        0.198399778593236 165.196154445519 0.801784646420814 -11.6987173592596 0.563635923424617 -32.4140029054142 
                               0.801784646420815 -11.6987173592596 0.198157622590408 167.491382849947 0.563723449029437 -31.2648288282079 
                               0.563635923424617 -32.4140029054142 0.563723449029437 -31.2648288282079 0.603599654062724 127.37610019898  
! Gamma         8.99001727338453E-05 0.629891366864586 9.15154908550749E-05 0.62989302858372 0.000100279250223763 0.629901989261312 
! Port Impedance         29.7523770466674 -0.00408145491384427 29.7431695443288 -0.00408417433617234 60.449529492197  -0.00872503787706359 
0.03006                        0.19840023390794 165.191195671979 0.801784248148173 -11.7026008356315 0.563636317990127 -32.4248052434097 
                               0.801784248148173 -11.7026008356315 0.198158087371089 167.487188146614 0.563723840692559 -31.2752487650754 
                               0.563636317990127 -32.4248052434097 0.563723840692559 -31.2752487650754 0.603598903336126 127.358531857399 
! Gamma         8.99148416247782E-05 0.630100966565406 9.15304307729955E-05 0.630102628565581 0.000100295651619176 0.630111590758565 
! Port Impedance         29.752376371278  -0.00408077366747694 29.7431688684902 -0.00408349263807769 60.4495280485045 -0.00872358170992996 
0.03007                        0.198400689351045 165.186236867213 0.801783849772022 -11.706484303141 0.563636712654566 -32.4356075966432 
                               0.801783849772022 -11.706484303141 0.198158552283338 167.482993412259 0.563724232453634 -31.2856687171824 
                               0.563636712654566 -32.4356075966432 0.563724232453634 -31.2856687171824 0.60359815240874 127.340963461149 
! Gamma         8.99295090589751E-05 0.630310566263288 9.15453692072927E-05 0.630312228544449 0.000100312051385991 0.630321192252534 
! Port Impedance         29.7523756962134 -0.00408009277149448 29.7431681929765 -0.00408281129059983 60.4495266055062 -0.00872212629173471 
0.03008                        0.19840114492253 165.181278031212 0.801783451292391 -11.7103677617852 0.563637107417905 -32.4464099651192 
                               0.801783451292391 -11.7103677617853 0.198159017327132 167.478798646873 0.563724624312633 -31.2960886845335 
                               0.563637107417905 -32.4464099651192 0.563724624312633 -31.2960886845335 0.603597401280627 127.323395010214 
! Gamma         8.99441750354553E-05 0.630520165958233 9.15603061569677E-05 0.630521828520326 0.000100328449523112 0.630530793743217 
! Port Impedance         29.7523750214732 -0.00407941222556886 29.7431675177875 -0.00408213029341052 60.4495251632014 -0.00872067162177679 
0.03009                        0.198401600622371 165.176319163967 0.801783052709307 -11.7142512115616 0.563637502280111 -32.4572123488423 
                               0.801783052709307 -11.7142512115616 0.19815948250245 167.474603850448 0.563725016269523 -31.3065086671334 
                               0.563637502280111 -32.4572123488423 0.563725016269523 -31.3065086671334 0.603596649951845 127.305826504577 
! Gamma         8.99588395532404E-05 0.630729765650243 9.15752416210241E-05 0.630731428493212 0.000100344846029444 0.630740395230617 
! Port Impedance         29.7523743470572 -0.00407873202937249 29.7431668429228 -0.00408144964618198 60.4495237215896 -0.00871921769935618 
0.0301                         0.198402056450546 165.17136026547  0.8017826540228  -11.7181346524673 0.563637897241154 -32.4680147478172 
                               0.8017826540228  -11.7181346524673 0.198159947809268 167.470409022973 0.563725408324274 -31.3169286649866 
                               0.563637897241154 -32.4680147478173 0.563725408324274 -31.3169286649866 0.603595898422453 127.288257944223 
! Gamma         8.99735026113544E-05 0.630939365339317 9.15901755984677E-05 0.63094102846311 0.000100361240903897 0.630949996714736 
! Port Impedance         29.7523736729652 -0.00407805218257829 29.7431661683823 -0.00408076934858686 60.4495222806704 -0.00871776452377384 
0.03011                        0.198402512407034 165.166401335711 0.801782255232898 -11.7220180844996 0.563638292301003 -32.4788171620485 
                               0.801782255232898 -11.7220180844996 0.198160413247564 167.46621416444  0.563725800476855 -31.3273486780976 
                               0.563638292301003 -32.4788171620485 0.563725800476855 -31.3273486780976 0.603595146692511 127.270689329136 
! Gamma         8.99881642088238E-05 0.631148965025458 9.16051080883071E-05 0.63115062843002 0.000100377634145382 0.631159598195575 
! Port Impedance         29.7523729991968 -0.00407737268485959 29.7431654941657 -0.00408008940029834 60.4495208404431 -0.00871631209433169 
0.03012                        0.198402968491812 165.161442374682 0.801781856339631 -11.7259015076559 0.563638687459626 -32.4896195915407 
                               0.801781856339631 -11.7259015076559 0.198160878817316 167.462019274841 0.563726192727234 -31.3377687064711 
                               0.563638687459626 -32.4896195915407 0.563726192727234 -31.3377687064711 0.603594394762077 127.2531206593   
! Gamma         9.00028243446774E-05 0.631358564708667 9.16200390895531E-05 0.631360228393944 0.000100394025752813 0.631369199673135 
! Port Impedance         29.7523723257518 -0.00407669353589024 29.7431648202727 -0.00407940980099 60.4495194009071 -0.00871486041033269 
0.03013                        0.198403424704858 165.156483382374 0.801781457343026 -11.7297849219333 0.563639082716993 -32.5004220362985 
                               0.801781457343026 -11.7297849219333 0.198161344518502 167.457824354167 0.563726585075381 -31.3481887501117 
                               0.563639082716993 -32.5004220362985 0.563726585075381 -31.3481887501117 0.603593642631212 127.235551934698 
! Gamma         9.00174830179464E-05 0.631568164388945 9.16349686012192E-05 0.631569828354882 0.000100410415725106 0.631578801147417 
! Port Impedance         29.75237165263   -0.00407601473534449 29.7431641467032 -0.00407873055033591 60.449517962062  -0.00871340947108074 
0.03014                        0.198403881046149 165.151524358778 0.801781058243112 -11.7336683273292 0.563639478073073 -32.5112244963264 
                               0.801781058243112 -11.7336683273292 0.198161810351099 167.453629402408 0.563726977521264 -31.358608809024 
                               0.563639478073073 -32.5112244963264 0.563726977521264 -31.358608809024 0.603592890299975 127.217983155315 
! Gamma         9.00321402276646E-05 0.631777764066294 9.1649896622321E-05 0.631779428312837 0.000100426804061182 0.631788402618424 
! Port Impedance         29.7523709798311 -0.0040753362828971 29.7431634734567 -0.00407805164801061 60.4495165239073 -0.00871195927588076 
0.03015                        0.198404337515664 165.146565303886 0.801780659039918 -11.7375517238408 0.563639873527834 -32.5220269716292 
                               0.801780659039918 -11.7375517238408 0.198162276315085 167.449434419557 0.563727370064853 -31.3690288832124 
                               0.563639873527834 -32.5220269716292 0.563727370064853 -31.3690288832124 0.603592137768426 127.200414321135 
! Gamma         9.00467959728678E-05 0.631987363740714 9.16648231518768E-05 0.631989028267809 0.000100443190759962 0.631998004086155 
! Port Impedance         29.7523703073549 -0.00407465817822327 29.7431628005331 -0.00407737309368908 60.4495150864422 -0.00871050982403862 
0.03016                        0.198404794113379 165.141606217688 0.801780259733473 -11.7414351114654 0.563640269081245 -32.5328294622113 
                               0.801780259733473 -11.7414351114654 0.198162742410437 167.445239405604 0.563727762706116 -31.3794489726817 
                               0.563640269081245 -32.5328294622113 0.563727762706115 -31.3794489726817 0.603591385036623 127.18284543214  
! Gamma         9.00614502525946E-05 0.632196963412206 9.16797481889072E-05 0.632198628219799 0.000100459575820371 0.632207605550614 
! Port Impedance         29.752369635201  -0.00407398042099867 29.7431621279321 -0.00407669488704677 60.4495136496664 -0.00870906111486119 
0.03017                        0.198405250839273 165.136647100176 0.801779860323806 -11.7453184902004 0.563640664733276 -32.5436319680774 
                               0.801779860323806 -11.7453184902004 0.198163208637133 167.44104436054  0.563728155445021 -31.3898690774364 
                               0.563640664733276 -32.5436319680774 0.563728155445021 -31.3898690774364 0.603590632104626 127.165276488317 
! Gamma         9.00761030658857E-05 0.632406563080773 9.16946717324355E-05 0.63240822816881 0.000100475959241337 0.6324172070118  
! Port Impedance         29.7523689633693 -0.00407330301089939 29.7431614556535 -0.00407601702775959 60.4495122135793 -0.00870761314765633 
0.03018                        0.198405707693323 165.131687951341 0.801779460810944 -11.7492018600429 0.563641060483894 -32.5544344892322 
                               0.801779460810944 -11.7492018600429 0.198163674995151 167.436849284356 0.563728548281539 -31.400289197481 
                               0.563641060483894 -32.5544344892322 0.563728548281538 -31.400289197481 0.603589878972495 127.147707489648 
! Gamma         9.00907544117844E-05 0.632616162746415 9.17095937814868E-05 0.632617828114842 0.000100492341021789 0.632626808469716 
! Port Impedance         29.7523682918595 -0.00407262594760203 29.7431607836969 -0.00407533951550389 60.4495107781802 -0.00870616592173286 
0.03019                        0.198406164675506 165.126728771174 0.801779061194917 -11.7530852209903 0.56364145633307 -32.5652370256801 
                               0.801779061194917 -11.7530852209903 0.198164141484468 167.432654177045 0.563728941215636 -31.4107093328202 
                               0.56364145633307 -32.5652370256801 0.563728941215636 -31.4107093328202 0.603589125640289 127.130138436117 
! Gamma         9.01054042893363E-05 0.632825762409133 9.17245143350894E-05 0.632827428057896 0.000100508721160661 0.632836409924363 
! Port Impedance         29.7523676206713 -0.00407194923078362 29.7431601120622 -0.00407466234995651 60.4495093434688 -0.00870471943640056 
0.0302                         0.198406621785802 165.121769559666 0.801778661475754 -11.7569685730398 0.563641852280771 -32.5760395774259 
                               0.801778661475754 -11.7569685730398 0.198164608105062 167.428459038596 0.563729334247284 -31.4211294834585 
                               0.563641852280771 -32.5760395774259 0.563729334247284 -31.4211294834585 0.603588372108068 127.112569327709 
! Gamma         9.01200526975892E-05 0.63303536206893 9.17394333922735E-05 0.633037027997974 0.000100525099656888 0.633046011375742 
! Port Impedance         29.7523669498044 -0.00407127286012164 29.7431594407491 -0.00407398553079471 60.4495079094443 -0.00870327369097023 
0.03021                        0.198407079024187 165.116810316809 0.801778261653483 -11.7608519161887 0.563642248326967 -32.5868421444741 
                               0.801778261653483 -11.7608519161887 0.19816507485691 167.424263869001 0.56372972737645 -31.4315496494005 
                               0.563642248326967 -32.5868421444741 0.56372972737645 -31.4315496494005 0.603587618375892 127.095000164407 
! Gamma         9.01346996355935E-05 0.633244961725805 9.17543509520719E-05 0.633246627935077 0.000100541476509408 0.633255612823855 
! Port Impedance         29.7523662792588 -0.00407059683529405 29.7431587697574 -0.00407330905769623 60.4495064761064 -0.0087018286847536 
0.03022                        0.198407536390638 165.111851042594 0.801777861728133 -11.7647352504344 0.563642644471627 -32.5976447268293 
                               0.801777861728133 -11.7647352504344 0.19816554173999 167.420068668251 0.563730120603103 -31.4419698306508 
                               0.563642644471627 -32.5976447268293 0.563730120603103 -31.4419698306508 0.60358686444382 127.077430946196 
! Gamma         9.01493451024019E-05 0.633454561379761 9.17692670135199E-05 0.633456227869206 0.000100557851717162 0.633465214268703 
! Port Impedance         29.752365609034  -0.00406992115597923 29.7431580990867 -0.00407263293033926 60.4495050434544 -0.00870038441706339 
0.03023                        0.198407993885134 165.106891737012 0.801777461699732 -11.768618575774 0.563643040714719 -32.6084473244961 
                               0.801777461699733 -11.768618575774 0.19816600875428 167.415873436338 0.563730513927212 -31.452390027214 
                               0.563643040714719 -32.6084473244961 0.563730513927212 -31.452390027214 0.603586110311912 127.059861673059 
! Gamma         9.01639890970696E-05 0.633664161030798 9.17841815756549E-05 0.633665827800363 0.000100574225279093 0.633674815710287 
! Port Impedance         29.7523649391298 -0.00406924582185604 29.7431574287369 -0.00407195714840243 60.4495036114878 -0.00869894088721329 
0.03024                        0.198408451507653 165.101932400054 0.80177706156831 -11.7725018922049 0.563643437056212 -32.6192499374792 
                               0.801777061568311 -11.7725018922049 0.198166475899756 167.411678173253 0.563730907348746 -31.4628102390947 
                               0.563643437056212 -32.6192499374792 0.563730907348746 -31.4628102390947 0.603585355980228 127.04229234498  
! Gamma         9.01786316186539E-05 0.633873760678918 9.17990946375171E-05 0.633875427728548 0.000100590597194147 0.633884417148609 
! Port Impedance         29.7523642695459 -0.00406857083260378 29.7431567587076 -0.00407128171156485 60.4495021802062 -0.00869749809451796 
0.03025                        0.198408909258171 165.096973031711 0.801776661333896 -11.7763851997244 0.563643833496075 -32.6300525657831 
                               0.801776661333896 -11.7763851997244 0.198166943176398 167.407482878986 0.563731300867673 -31.4732304662973 
                               0.563643833496075 -32.630052565783 0.563731300867673 -31.4732304662973 0.603584601448826 127.024722961944 
! Gamma         9.01932726662146E-05 0.634083360324121 9.18140061981489E-05 0.634085027653763 0.000100606967461274 0.63409401858367 
! Port Impedance         29.7523636002822 -0.00406789618790222 29.7431560889987 -0.00407060661950605 60.4495007496088 -0.008696056038293 
0.03026                        0.198409367136667 165.092013631975 0.801776260996517 -11.7802684983297 0.563644230034277 -32.6408552094124 
                               0.801776260996517 -11.7802684983297 0.198167410584181 167.403287553529 0.563731694483964 -31.4836507088266 
                               0.563644230034277 -32.6408552094124 0.563731694483964 -31.4836507088266 0.603583846717769 127.007153523934 
! Gamma         9.02079122388139E-05 0.63429295996641 9.18289162565951E-05 0.63429462757601 0.000100623336079423 0.634303620015472 
! Port Impedance         29.7523629313384 -0.00406722188743155 29.7431554196099 -0.00406993187190604 60.4494993196952 -0.00869461471785501 
0.03027                        0.198409825143118 165.087054200837 0.801775860556204 -11.7841517880181 0.563644626670787 -32.6516578683717 
                               0.801775860556204 -11.7841517880181 0.198167878123084 167.399092196874 0.563732088197584 -31.4940709666871 
                               0.563644626670787 -32.6516578683717 0.563732088197584 -31.4940709666871 0.603583091787113 126.989584030934 
! Gamma         9.02225503355165E-05 0.634502559605786 9.1843824811903E-05 0.634504227495289 0.00010063970304755 0.634513221444016 
! Port Impedance         29.7523622627141 -0.00406654793087243 29.7431547505409 -0.00406925746844526 60.4494978904649 -0.00869317413252151 
0.03028                        0.198410283277501 165.082094738288 0.801775460012983 -11.788035068787 0.563645023405573 -32.6624605426657 
                               0.801775460012983 -11.788035068787 0.198168345793084 167.394896809011 0.563732482008505 -31.5044912398833 
                               0.563645023405573 -32.6624605426657 0.563732482008505 -31.5044912398833 0.603582336656922 126.972014482929 
! Gamma         9.02371869553891E-05 0.634712159242249 9.18587318631222E-05 0.634713827411603 0.000100656068364612 0.634722822869303 
! Port Impedance         29.7523615944093 -0.00406587431790597 29.7431540817914 -0.00406858340880461 60.4494964619173 -0.00869173428161104 
0.03029                        0.198410741539795 165.077135244319 0.801775059366886 -11.7919183406335 0.563645420238603 -32.6732632322989 
                               0.801775059366886 -11.7919183406335 0.198168813594159 167.390701389931 0.563732875916695 -31.5149115284198 
                               0.563645420238603 -32.6732632322989 0.563732875916695 -31.5149115284198 0.603581581327253 126.954444879902 
! Gamma         9.0251822097501E-05 0.634921758875801 9.18736374093048E-05 0.634923427324951 0.000100672432029566 0.634932424291335 
! Port Impedance         29.7523609264235 -0.00406520104821373 29.7431534133613 -0.00406790969266543 60.4494950340519 -0.00869029516444304 
0.0303                         0.198411199929977 165.072175718922 0.801774658617939 -11.795801603555 0.563645817169849 -32.6840659372759 
                               0.801774658617939 -11.795801603555 0.198169281526287 167.386505939626 0.563733269922121 -31.5253318323013 
                               0.563645817169849 -32.6840659372759 0.563733269922121 -31.5253318323013 0.603580825798166 126.936875221838 
! Gamma         9.02664557609238E-05 0.635131358506443 9.18885414495051E-05 0.635133027235335 0.000100688794041375 0.635142025710114 
! Port Impedance         29.7523602587566 -0.00406452812147771 29.7431527452503 -0.00406723631970952 60.4494936068682 -0.00868885678033793 
0.03031                        0.198411658448025 165.067216162087 0.801774257766173 -11.7996848575489 0.563646214199277 -32.6948686576014 
                               0.801774257766173 -11.7996848575489 0.198169749589444 167.382310458088 0.563733664024754 -31.5357521515322 
                               0.563646214199276 -32.6948686576014 0.563733664024754 -31.5357521515322 0.603580070069722 126.91930550872  
! Gamma         9.02810879447314E-05 0.635340958134177 9.19034439827801E-05 0.635342627142758 0.000100705154399004 0.635351627125639 
! Port Impedance         29.7523595914083 -0.00406385553738035 29.7431520774581 -0.00406656328961912 60.4494921803655 -0.00868741912861709 
0.03032                        0.198412117093915 165.062256573806 0.801773856811615 -11.8035681026122 0.563646611326856 -32.7056713932799 
                               0.801773856811615 -11.8035681026122 0.198170217783608 167.378114945306 0.563734058224562 -31.5461724861172 
                               0.563646611326856 -32.7056713932799 0.563734058224562 -31.5461724861172 0.603579314141981 126.901735740532 
! Gamma         9.02957186480003E-05 0.635550557759003 9.1918345008189E-05 0.635552227047219 0.00010072151310142 0.635561228537914 
! Port Impedance         29.7523589243784 -0.00406318329560456 29.7431514099844 -0.00406589060207692 60.4494907545435 -0.00868598220860286 
0.03033                        0.198412575867627 165.057296954071 0.801773455754295 -11.8074513387424 0.563647008552555 -32.716474144316 
                               0.801773455754295 -11.8074513387424 0.198170686108757 167.373919401272 0.563734452521513 -31.5565928360609 
                               0.563647008552555 -32.716474144316 0.563734452521513 -31.5565928360609 0.603578558015002 126.884165917258 
! Gamma         9.03103478698089E-05 0.635760157380924 9.19332445247933E-05 0.635761826948721 0.000100737870147593 0.63577082994694 
! Port Impedance         29.7523582576666 -0.00406251139583368 29.7431507428291 -0.00406521825676605 60.4494893294015 -0.0086845460196185 
0.03034                        0.198413034769137 165.052337302871 0.801773054594242 -11.8113345659368 0.563647405876344 -32.7272769107143 
                               0.801773054594242 -11.8113345659368 0.198171154564868 167.369723825979 0.563734846915577 -31.5670132013677 
                               0.563647405876344 -32.7272769107143 0.563734846915577 -31.5670132013677 0.603577801688846 126.866596038883 
! Gamma         9.03249756092383E-05 0.63596975699994 9.19481425316571E-05 0.635971426847264 0.000100754225536494 0.635980431352717 
! Port Impedance         29.7523575912726 -0.00406183983775149 29.7431500759918 -0.0040645462533701 60.4494879049389 -0.00868311056098826 
0.03035                        0.198413493798422 165.0473776202   0.801772653331484 -11.8152177841926 0.56364780329819 -32.7380796924795 
                               0.801772653331484 -11.8152177841926 0.198171623151919 167.365528219416 0.563735241406721 -31.5774335820423 
                               0.56364780329819 -32.7380796924795 0.563735241406721 -31.5774335820423 0.603577045163572 126.849026105391 
! Gamma         9.03396018653718E-05 0.636179356616052 9.19630390278468E-05 0.63618102674285 0.0001007705792671 0.636190032755247 
! Port Impedance         29.7523569251963 -0.00406116862104222 29.7431494094724 -0.00406387459157308 60.4494864811554 -0.00868167583203732 
0.03036                        0.198413952955462 165.042417906047 0.80177225196605 -11.8191009935071 0.563648200818062 -32.748882489616 
                               0.801772251966051 -11.8191009935071 0.198172091869888 167.361332581574 0.563735635994915 -31.5878539780892 
                               0.563648200818062 -32.748882489616 0.563735635994915 -31.5878539780892 0.603576288439241 126.831456116764 
! Gamma         9.0354226637295E-05 0.636388956229262 9.1977934012431E-05 0.63639062663548 0.000100786931338387 0.636399634154532 
! Port Impedance         29.7523562594373 -0.00406049774539055 29.7431487432705 -0.00406320327105945 60.4494850580504 -0.00868024183209179 
0.03037                        0.198414412240232 165.037458160404 0.80177185049797 -11.8229841938776 0.56364859843593 -32.7596853021286 
                               0.80177185049797 -11.8229841938776 0.198172560718751 167.357136912446 0.563736030680128 -31.5982743895131 
                               0.56364859843593 -32.7596853021286 0.563736030680128 -31.5982743895131 0.603575531515913 126.813886072989 
! Gamma         9.03688499240961E-05 0.636598555839571 9.1992827484481E-05 0.636600226525155 0.000100803281749335 0.636609235550573 
! Port Impedance         29.7523555939954 -0.00405982721048159 29.743148077386  -0.00406253229151414 60.4494836356232 -0.00867880856047876 
0.03038                        0.198414871652711 165.032498383262 0.801771448927272 -11.8268673853015 0.563648996151761 -32.7704881300218 
                               0.801771448927272 -11.8268673853015 0.198173029698486 167.352941212023 0.563736425462328 -31.6086948163185 
                               0.563648996151761 -32.7704881300218 0.563736425462328 -31.6086948163185 0.603574774393649 126.796315974047 
! Gamma         9.03834717248651E-05 0.636808155446981 9.20077194430703E-05 0.636809826411877 0.000100819630498928 0.636818836943372 
! Port Impedance         29.7523549288704 -0.0040591570160009 29.7431474118186 -0.00406186165262249 60.4494822138734 -0.00867737601652624 
0.03039                        0.198415331192876 165.027538574613 0.801771047253984 -11.8307505677759 0.563649393965525 -32.7812909733002 
                               0.801771047253984 -11.8307505677759 0.19817349880907 167.348745480295 0.563736820341483 -31.6191152585099 
                               0.563649393965525 -32.7812909733002 0.563736820341483 -31.6191152585099 0.603574017072508 126.778745819924 
! Gamma         9.03980920386948E-05 0.637017755051491 9.20226098872746E-05 0.637019426295647 0.000100835977586152 0.637028438332929 
! Port Impedance         29.752354264062  -0.00405848716163448 29.7431467465679 -0.00406119135407029 60.4494807928005 -0.00867594419956318 
0.0304                         0.198415790860705 165.022578734448 0.801770645478136 -11.8346337412982 0.56364979187719 -32.7920938319683 
                               0.801770645478136 -11.8346337412982 0.198173968050482 167.344549717254 0.563737215317562 -31.629535716092 
                               0.56364979187719 -32.7920938319683 0.563737215317562 -31.629535716092 0.60357325955255 126.761175610604 
! Gamma         9.04127108646803E-05 0.637227354653105 9.20374988161724E-05 0.637229026176466 0.000100852323009993 0.637238039719247 
! Port Impedance         29.75235359957   -0.00405781764706876 29.7431460816339 -0.00406052139554378 60.449479372404  -0.00867451310891949 
0.03041                        0.198416250656175 165.017618862758 0.801770243599757 -11.8385169058658 0.563650189886725 -32.8028967060309 
                               0.801770243599757 -11.8385169058658 0.198174437422698 167.34035392289  0.563737610390535 -31.6399561890692 
                               0.563650189886725 -32.8028967060309 0.563737610390534 -31.6399561890692 0.603572501833836 126.74360534607  
! Gamma         9.04273282019188E-05 0.637436954251823 9.20523862288441E-05 0.637438626054335 0.000100868666769443 0.637447641102326 
! Port Impedance         29.7523529353941 -0.00405714847199063 29.7431454170162 -0.00405985177672962 60.4494779526832 -0.008673082743926 
0.03042                        0.198416710579264 165.012658959534 0.801769841618876 -11.8424000614758 0.563650587994099 -32.8136995954924 
                               0.801769841618876 -11.8424000614758 0.198174906925697 167.336158097196 0.563738005560369 -31.6503766774462 
                               0.563650587994098 -32.8136995954924 0.563738005560369 -31.6503766774462 0.603571743916426 126.726035026306 
! Gamma         9.04419440495098E-05 0.637646553847646 9.20672721243728E-05 0.637648225929257 0.000100885008863494 0.637657242482168 